nqpoint: 606    
npath: 6      
segment_nqpoint:
- 101
- 101
- 101
- 101
- 101
- 101
reciprocal_lattice:
- [   0.25644304,   0.00000000,   0.00000000 ] # a*
- [   0.00000000,   0.25644304,   0.00000000 ] # b*
- [   0.00000000,   0.00000000,   0.25644304 ] # c*
natom: 5      
lattice:
- [     3.899501355072209,     0.000000000000000,     0.000000000000000 ] # a
- [     0.000000000000000,     3.899501355072209,     0.000000000000000 ] # b
- [     0.000000000000000,     0.000000000000000,     3.899501355072209 ] # c
points:
- symbol: Sr # 1
  coordinates: [  0.000000000000000,  0.000000000000000,  0.000000000000000 ]
  mass: 87.620000
- symbol: Ti # 2
  coordinates: [  0.500000000000000,  0.500000000000000,  0.500000000000000 ]
  mass: 47.867000
- symbol: O  # 3
  coordinates: [  0.500000000000000,  0.500000000000000,  0.000000000000000 ]
  mass: 15.999400
- symbol: O  # 4
  coordinates: [  0.500000000000000,  0.000000000000000,  0.500000000000000 ]
  mass: 15.999400
- symbol: O  # 5
  coordinates: [  0.000000000000000,  0.500000000000000,  0.500000000000000 ]
  mass: 15.999400
supercell_matrix:
- [    9,    0,    0 ]
- [    0,    9,    0 ]
- [    0,    0,    9 ]

phonon:
- q-position: [    0.0000000,    0.0000000,    0.0000000 ]
  distance:    0.0000000
  band:
  - # 1
    frequency:   -1.4618965832
  - # 2
    frequency:   -1.4618965832
  - # 3
    frequency:   -0.0000181248
  - # 4
    frequency:   -0.0000181232
  - # 5
    frequency:   -0.0000181215
  - # 6
    frequency:    3.0356516280
  - # 7
    frequency:    5.8576004749
  - # 8
    frequency:    5.8576004749
  - # 9
    frequency:    5.8576004749
  - # 10
    frequency:    9.6100271615
  - # 11
    frequency:    9.6100271615
  - # 12
    frequency:   11.9065617979
  - # 13
    frequency:   22.9337694784
  - # 14
    frequency:   22.9337694784
  - # 15
    frequency:   30.2552152976

- q-position: [    0.0000000,    0.0050000,    0.0000000 ]
  distance:    0.0012822
  band:
  - # 1
    frequency:   -1.4575055835
  - # 2
    frequency:   -1.4575055835
  - # 3
    frequency:    0.0513361667
  - # 4
    frequency:    0.0513361667
  - # 5
    frequency:    0.1160690673
  - # 6
    frequency:    3.0378313026
  - # 7
    frequency:    5.8579998231
  - # 8
    frequency:    5.8582811599
  - # 9
    frequency:    5.8582811599
  - # 10
    frequency:    9.6097846936
  - # 11
    frequency:    9.6097846936
  - # 12
    frequency:   11.9075350419
  - # 13
    frequency:   22.9331113760
  - # 14
    frequency:   22.9331113760
  - # 15
    frequency:   30.2530100229

- q-position: [    0.0000000,    0.0100000,    0.0000000 ]
  distance:    0.0025644
  band:
  - # 1
    frequency:   -1.4442695890
  - # 2
    frequency:   -1.4442695890
  - # 3
    frequency:    0.1027112414
  - # 4
    frequency:    0.1027112414
  - # 5
    frequency:    0.2319192550
  - # 6
    frequency:    3.0443679211
  - # 7
    frequency:    5.8591973105
  - # 8
    frequency:    5.8603233462
  - # 9
    frequency:    5.8603233462
  - # 10
    frequency:    9.6090576626
  - # 11
    frequency:    9.6090576626
  - # 12
    frequency:   11.9104530145
  - # 13
    frequency:   22.9311377779
  - # 14
    frequency:   22.9311377779
  - # 15
    frequency:   30.2463960807

- q-position: [    0.0000000,    0.0150000,    0.0000000 ]
  distance:    0.0038466
  band:
  - # 1
    frequency:   -1.4219946218
  - # 2
    frequency:   -1.4219946218
  - # 3
    frequency:    0.1541729009
  - # 4
    frequency:    0.1541729009
  - # 5
    frequency:    0.3473320563
  - # 6
    frequency:    3.0552542593
  - # 7
    frequency:    5.8611912665
  - # 8
    frequency:    5.8637274187
  - # 9
    frequency:    5.8637274187
  - # 10
    frequency:    9.6078471865
  - # 11
    frequency:    9.6078471865
  - # 12
    frequency:   11.9153104339
  - # 13
    frequency:   22.9278508090
  - # 14
    frequency:   22.9278508090
  - # 15
    frequency:   30.2353791167

- q-position: [    0.0000000,    0.0200000,    0.0000000 ]
  distance:    0.0051289
  band:
  - # 1
    frequency:   -1.3903398886
  - # 2
    frequency:   -1.3903398886
  - # 3
    frequency:    0.2057880108
  - # 4
    frequency:    0.2057880108
  - # 5
    frequency:    0.4620898040
  - # 6
    frequency:    3.0704782415
  - # 7
    frequency:    5.8639789122
  - # 8
    frequency:    5.8684939908
  - # 9
    frequency:    5.8684939908
  - # 10
    frequency:    9.6061551276
  - # 11
    frequency:    9.6061551276
  - # 12
    frequency:   11.9220984874
  - # 13
    frequency:   22.9232540056
  - # 14
    frequency:   22.9232540056
  - # 15
    frequency:   30.2199685377

- q-position: [    0.0000000,    0.0250000,    0.0000000 ]
  distance:    0.0064111
  band:
  - # 1
    frequency:   -1.3487882659
  - # 2
    frequency:   -1.3487882659
  - # 3
    frequency:    0.2576567999
  - # 4
    frequency:    0.2576567999
  - # 5
    frequency:    0.5759762909
  - # 6
    frequency:    3.0900228449
  - # 7
    frequency:    5.8675563677
  - # 8
    frequency:    5.8746238619
  - # 9
    frequency:    5.8746238619
  - # 10
    frequency:    9.6039840907
  - # 11
    frequency:    9.6039840907
  - # 12
    frequency:   11.9308048165
  - # 13
    frequency:   22.9173523067
  - # 14
    frequency:   22.9173523067
  - # 15
    frequency:   30.2001775089

- q-position: [    0.0000000,    0.0300000,    0.0000000 ]
  distance:    0.0076933
  band:
  - # 1
    frequency:   -1.2965973829
  - # 2
    frequency:   -1.2965973829
  - # 3
    frequency:    0.3099342897
  - # 4
    frequency:    0.3099342897
  - # 5
    frequency:    0.6887776331
  - # 6
    frequency:    3.1138658888
  - # 7
    frequency:    5.8719186624
  - # 8
    frequency:    5.8821179598
  - # 9
    frequency:    5.8821179598
  - # 10
    frequency:    9.6013374208
  - # 11
    frequency:    9.6013374208
  - # 12
    frequency:   11.9414134982
  - # 13
    frequency:   22.9101520421
  - # 14
    frequency:   22.9101520421
  - # 15
    frequency:   30.1760229488

- q-position: [    0.0000000,    0.0350000,    0.0000000 ]
  distance:    0.0089755
  band:
  - # 1
    frequency:   -1.2327206918
  - # 2
    frequency:   -1.2327206918
  - # 3
    frequency:    0.3628652252
  - # 4
    frequency:    0.3628652252
  - # 5
    frequency:    0.8002834449
  - # 6
    frequency:    3.1419796415
  - # 7
    frequency:    5.8770597491
  - # 8
    frequency:    5.8909772679
  - # 9
    frequency:    5.8909772679
  - # 10
    frequency:    9.5982192002
  - # 11
    frequency:    9.5982192002
  - # 12
    frequency:   11.9539050216
  - # 13
    frequency:   22.9016609177
  - # 14
    frequency:   22.9016609177
  - # 15
    frequency:   30.1475255234

- q-position: [    0.0000000,    0.0400000,    0.0000000 ]
  distance:    0.0102577
  band:
  - # 1
    frequency:   -1.1556787381
  - # 2
    frequency:   -1.1556787381
  - # 3
    frequency:    0.4168445650
  - # 4
    frequency:    0.4168445650
  - # 5
    frequency:    0.9102883825
  - # 6
    frequency:    3.1743301772
  - # 7
    frequency:    5.8829725197
  - # 8
    frequency:    5.9012027390
  - # 9
    frequency:    5.9012027390
  - # 10
    frequency:    9.5946342445
  - # 11
    frequency:    9.5946342445
  - # 12
    frequency:   11.9682562636
  - # 13
    frequency:   22.8918879971
  - # 14
    frequency:   22.8918879971
  - # 15
    frequency:   30.1147096384

- q-position: [    0.0000000,    0.0450000,    0.0000000 ]
  distance:    0.0115399
  band:
  - # 1
    frequency:   -1.0633419592
  - # 2
    frequency:   -1.0633419592
  - # 3
    frequency:    0.4725278316
  - # 4
    frequency:    0.4725278316
  - # 5
    frequency:    1.0185940918
  - # 6
    frequency:    3.2108764244
  - # 7
    frequency:    5.8896488245
  - # 8
    frequency:    5.9127951964
  - # 9
    frequency:    5.9127951964
  - # 10
    frequency:    9.5905880986
  - # 11
    frequency:    9.5905880986
  - # 12
    frequency:   11.9844404629
  - # 13
    frequency:   22.8808436803
  - # 14
    frequency:   22.8808436803
  - # 15
    frequency:   30.0776034309

- q-position: [    0.0000000,    0.0500000,    0.0000000 ]
  distance:    0.0128222
  band:
  - # 1
    frequency:   -0.9525422307
  - # 2
    frequency:   -0.9525422307
  - # 3
    frequency:    0.5310411098
  - # 4
    frequency:    0.5310411098
  - # 5
    frequency:    1.1250115668
  - # 6
    frequency:    3.2515688719
  - # 7
    frequency:    5.8970794934
  - # 8
    frequency:    5.9257552253
  - # 9
    frequency:    5.9257552253
  - # 10
    frequency:    9.5860870315
  - # 11
    frequency:    9.5860870315
  - # 12
    frequency:   12.0024271956
  - # 13
    frequency:   22.8685396793
  - # 14
    frequency:   22.8685396793
  - # 15
    frequency:   30.0362387591

- q-position: [    0.0000000,    0.0550000,    0.0000000 ]
  distance:    0.0141044
  band:
  - # 1
    frequency:   -0.8183010988
  - # 2
    frequency:   -0.8183010988
  - # 3
    frequency:    0.5943870016
  - # 4
    frequency:    0.5943870016
  - # 5
    frequency:    1.2293638802
  - # 6
    frequency:    3.2963479391
  - # 7
    frequency:    5.9052543604
  - # 8
    frequency:    5.9400830555
  - # 9
    frequency:    5.9400830555
  - # 10
    frequency:    9.5811380303
  - # 11
    frequency:    9.5811380303
  - # 12
    frequency:   12.0221823540
  - # 13
    frequency:   22.8549889909
  - # 14
    frequency:   22.8549889909
  - # 15
    frequency:   29.9906511904

- q-position: [    0.0000000,    0.0600000,    0.0000000 ]
  distance:    0.0153866
  band:
  - # 1
    frequency:   -0.6518906090
  - # 2
    frequency:   -0.6518906090
  - # 3
    frequency:    0.6661727991
  - # 4
    frequency:    0.6661727991
  - # 5
    frequency:    1.3314891977
  - # 6
    frequency:    3.3451420653
  - # 7
    frequency:    5.9141622897
  - # 8
    frequency:    5.9557784368
  - # 9
    frequency:    5.9557784368
  - # 10
    frequency:    9.5757487937
  - # 11
    frequency:    9.5757487937
  - # 12
    frequency:   12.0436681300
  - # 13
    frequency:   22.8402058661
  - # 14
    frequency:   22.8402058661
  - # 15
    frequency:   29.9408799888

- q-position: [    0.0000000,    0.0650000,    0.0000000 ]
  distance:    0.0166688
  band:
  - # 1
    frequency:   -0.4322942440
  - # 2
    frequency:   -0.4322942440
  - # 3
    frequency:    0.7524143918
  - # 4
    frequency:    0.7524143918
  - # 5
    frequency:    1.4312439286
  - # 6
    frequency:    3.3978656355
  - # 7
    frequency:    5.9237912040
  - # 8
    frequency:    5.9728405111
  - # 9
    frequency:    5.9728405111
  - # 10
    frequency:    9.5699277252
  - # 11
    frequency:    9.5699277252
  - # 12
    frequency:   12.0668430067
  - # 13
    frequency:   22.8242057776
  - # 14
    frequency:   22.8242057776
  - # 15
    frequency:   29.8869681001

- q-position: [    0.0000000,    0.0700000,    0.0000000 ]
  distance:    0.0179510
  band:
  - # 1
    frequency:    0.1560996646
  - # 2
    frequency:    0.1560996646
  - # 3
    frequency:    0.8600423214
  - # 4
    frequency:    0.8600423214
  - # 5
    frequency:    1.5285058144
  - # 6
    frequency:    3.4544169157
  - # 7
    frequency:    5.9341281154
  - # 8
    frequency:    5.9912676816
  - # 9
    frequency:    5.9912676816
  - # 10
    frequency:    9.5636839242
  - # 11
    frequency:    9.5636839242
  - # 12
    frequency:   12.0916617579
  - # 13
    frequency:   22.8070053843
  - # 14
    frequency:   22.8070053843
  - # 15
    frequency:   29.8289621362

- q-position: [    0.0000000,    0.0750000,    0.0000000 ]
  distance:    0.0192332
  band:
  - # 1
    frequency:    0.4394411996
  - # 2
    frequency:    0.4394411996
  - # 3
    frequency:    0.9895070256
  - # 4
    frequency:    0.9895070256
  - # 5
    frequency:    1.6231767124
  - # 6
    frequency:    3.5146762165
  - # 7
    frequency:    5.9451591574
  - # 8
    frequency:    6.0110574818
  - # 9
    frequency:    6.0110574818
  - # 10
    frequency:    9.5570271783
  - # 11
    frequency:    9.5570271783
  - # 12
    frequency:   12.1180754605
  - # 13
    frequency:   22.7886224931
  - # 14
    frequency:   22.7886224931
  - # 15
    frequency:   29.7669123573

- q-position: [    0.0000000,    0.0800000,    0.0000000 ]
  distance:    0.0205154
  band:
  - # 1
    frequency:    0.5684317873
  - # 2
    frequency:    0.5684317873
  - # 3
    frequency:    1.1312383700
  - # 4
    frequency:    1.1312383700
  - # 5
    frequency:    1.7151848191
  - # 6
    frequency:    3.5785045239
  - # 7
    frequency:    5.9568696189
  - # 8
    frequency:    6.0322064473
  - # 9
    frequency:    6.0322064473
  - # 10
    frequency:    9.5499679528
  - # 11
    frequency:    9.5499679528
  - # 12
    frequency:   12.1460315192
  - # 13
    frequency:   22.7690760194
  - # 14
    frequency:   22.7690760194
  - # 15
    frequency:   29.7008726531

- q-position: [    0.0000000,    0.0850000,    0.0000000 ]
  distance:    0.0217977
  band:
  - # 1
    frequency:    0.6548515084
  - # 2
    frequency:    0.6548515084
  - # 3
    frequency:    1.2751077251
  - # 4
    frequency:    1.2751077251
  - # 5
    frequency:    1.8044860970
  - # 6
    frequency:    3.6457428220
  - # 7
    frequency:    5.9692439799
  - # 8
    frequency:    6.0547099911
  - # 9
    frequency:    6.0547099911
  - # 10
    frequency:    9.5425173806
  - # 11
    frequency:    9.5425173806
  - # 12
    frequency:   12.1754737063
  - # 13
    frequency:   22.7483859443
  - # 14
    frequency:   22.7483859443
  - # 15
    frequency:   29.6309005221

- q-position: [    0.0000000,    0.0900000,    0.0000000 ]
  distance:    0.0230799
  band:
  - # 1
    frequency:    0.7222724692
  - # 2
    frequency:    0.7222724692
  - # 3
    frequency:    1.4160527413
  - # 4
    frequency:    1.4160527413
  - # 5
    frequency:    1.8910647224
  - # 6
    frequency:    3.7162122813
  - # 7
    frequency:    5.9822659477
  - # 8
    frequency:    6.0785622858
  - # 9
    frequency:    6.0785622858
  - # 10
    frequency:    9.5346872514
  - # 11
    frequency:    9.5346872514
  - # 12
    frequency:   12.2063422191
  - # 13
    frequency:   22.7265732712
  - # 14
    frequency:   22.7265732712
  - # 15
    frequency:   29.5570570492

- q-position: [    0.0000000,    0.0950000,    0.0000000 ]
  distance:    0.0243621
  band:
  - # 1
    frequency:    0.7797839575
  - # 2
    frequency:    0.7797839575
  - # 3
    frequency:    1.5524431210
  - # 4
    frequency:    1.5524431210
  - # 5
    frequency:    1.9749324653
  - # 6
    frequency:    3.7897153993
  - # 7
    frequency:    5.9959184950
  - # 8
    frequency:    6.1037561523
  - # 9
    frequency:    6.1037561523
  - # 10
    frequency:    9.5264899987
  - # 11
    frequency:    9.5264899987
  - # 12
    frequency:   12.2385737544
  - # 13
    frequency:   22.7036599796
  - # 14
    frequency:   22.7036599796
  - # 15
    frequency:   29.4794068820

- q-position: [    0.0000000,    0.1000000,    0.0000000 ]
  distance:    0.0256443
  band:
  - # 1
    frequency:    0.8314641837
  - # 2
    frequency:    0.8314641837
  - # 3
    frequency:    1.6840476418
  - # 4
    frequency:    1.6840476418
  - # 5
    frequency:    2.0561270178
  - # 6
    frequency:    3.8660380768
  - # 7
    frequency:    6.0101838985
  - # 8
    frequency:    6.1302829595
  - # 9
    frequency:    6.1302829595
  - # 10
    frequency:    9.5179386878
  - # 11
    frequency:    9.5179386878
  - # 12
    frequency:   12.2721016022
  - # 13
    frequency:   22.6796689788
  - # 14
    frequency:   22.6796689788
  - # 15
    frequency:   29.3980182047

- q-position: [    0.0000000,    0.1050000,    0.0000000 ]
  distance:    0.0269265
  band:
  - # 1
    frequency:    0.8793513764
  - # 2
    frequency:    0.8793513764
  - # 3
    frequency:    1.8110929444
  - # 4
    frequency:    1.8110929444
  - # 5
    frequency:    2.1347093973
  - # 6
    frequency:    3.9449525058
  - # 7
    frequency:    6.0250437782
  - # 8
    frequency:    6.1581325326
  - # 9
    frequency:    6.1581325326
  - # 10
    frequency:    9.5090470013
  - # 11
    frequency:    9.5090470013
  - # 12
    frequency:   12.3068557602
  - # 13
    frequency:   22.6546240588
  - # 14
    frequency:   22.6546240588
  - # 15
    frequency:   29.3129627105

- q-position: [    0.0000000,    0.1100000,    0.0000000 ]
  distance:    0.0282087
  band:
  - # 1
    frequency:    0.9245603247
  - # 2
    frequency:    0.9245603247
  - # 3
    frequency:    1.9339147478
  - # 4
    frequency:    1.9339147478
  - # 5
    frequency:    2.2107606387
  - # 6
    frequency:    4.0262206619
  - # 7
    frequency:    6.0404791374
  - # 8
    frequency:    6.1872930742
  - # 9
    frequency:    6.1872930742
  - # 10
    frequency:    9.4998292245
  - # 11
    frequency:    9.4998292245
  - # 12
    frequency:   12.3427630674
  - # 13
    frequency:   22.6285498419
  - # 14
    frequency:   22.6285498419
  - # 15
    frequency:   29.2243155726

- q-position: [    0.0000000,    0.1150000,    0.0000000 ]
  distance:    0.0294910
  band:
  - # 1
    frequency:    0.9677496450
  - # 2
    frequency:    0.9677496450
  - # 3
    frequency:    2.0528398718
  - # 4
    frequency:    2.0528398718
  - # 5
    frequency:    2.2843780445
  - # 6
    frequency:    4.1095981369
  - # 7
    frequency:    6.0564704031
  - # 8
    frequency:    6.2177510959
  - # 9
    frequency:    6.2177510959
  - # 10
    frequency:    9.4903002294
  - # 11
    frequency:    9.4903002294
  - # 12
    frequency:   12.3797473592
  - # 13
    frequency:   22.6014717326
  - # 14
    frequency:   22.6014717326
  - # 15
    frequency:   29.1321554122

- q-position: [    0.0000000,    0.1200000,    0.0000000 ]
  distance:    0.0307732
  band:
  - # 1
    frequency:    1.0093358215
  - # 2
    frequency:    1.0093358215
  - # 3
    frequency:    2.1681516903
  - # 4
    frequency:    2.1681516903
  - # 5
    frequency:    2.3556712745
  - # 6
    frequency:    4.1948380395
  - # 7
    frequency:    6.0729974660
  - # 8
    frequency:    6.2494913628
  - # 9
    frequency:    6.2494913628
  - # 10
    frequency:    9.4804754585
  - # 11
    frequency:    9.4804754585
  - # 12
    frequency:   12.4177296423
  - # 13
    frequency:   22.5734158676
  - # 14
    frequency:   22.5734158676
  - # 15
    frequency:   29.0365642653

- q-position: [    0.0000000,    0.1250000,    0.0000000 ]
  distance:    0.0320554
  band:
  - # 1
    frequency:    1.0495991336
  - # 2
    frequency:    1.0495991336
  - # 3
    frequency:    2.2800848421
  - # 4
    frequency:    2.2800848421
  - # 5
    frequency:    2.4247585336
  - # 6
    frequency:    4.2816947125
  - # 7
    frequency:    6.0900397218
  - # 8
    frequency:    6.2824968493
  - # 9
    frequency:    6.2824968493
  - # 10
    frequency:    9.4703709066
  - # 11
    frequency:    9.4703709066
  - # 12
    frequency:   12.4566282891
  - # 13
    frequency:   22.5444090652
  - # 14
    frequency:   22.5444090652
  - # 15
    frequency:   28.9376275472

- q-position: [    0.0000000,    0.1300000,    0.0000000 ]
  distance:    0.0333376
  band:
  - # 1
    frequency:    1.0887396162
  - # 2
    frequency:    1.0887396162
  - # 3
    frequency:    2.3888295203
  - # 4
    frequency:    2.3888295203
  - # 5
    frequency:    2.4917630652
  - # 6
    frequency:    4.3699270706
  - # 7
    frequency:    6.1075761108
  - # 8
    frequency:    6.3167487058
  - # 9
    frequency:    6.3167487058
  - # 10
    frequency:    9.4600031025
  - # 11
    frequency:    9.4600031025
  - # 12
    frequency:   12.4963592519
  - # 13
    frequency:   22.5144787756
  - # 14
    frequency:   22.5144787756
  - # 15
    frequency:   28.8354340139

- q-position: [    0.0000000,    0.1350000,    0.0000000 ]
  distance:    0.0346198
  band:
  - # 1
    frequency:    1.1269082831
  - # 2
    frequency:    1.1269082831
  - # 3
    frequency:    2.4945382124
  - # 4
    frequency:    2.4945382124
  - # 5
    frequency:    2.5568100906
  - # 6
    frequency:    4.4593014235
  - # 7
    frequency:    6.1255851586
  - # 8
    frequency:    6.3522262369
  - # 9
    frequency:    6.3522262369
  - # 10
    frequency:    9.4493890891
  - # 11
    frequency:    9.4493890891
  - # 12
    frequency:   12.5368362939
  - # 13
    frequency:   22.4836530312
  - # 14
    frequency:   22.4836530312
  - # 15
    frequency:   28.7300757225

- q-position: [    0.0000000,    0.1400000,    0.0000000 ]
  distance:    0.0359020
  band:
  - # 1
    frequency:    1.1642253507
  - # 2
    frequency:    1.1642253507
  - # 3
    frequency:    2.5973323888
  - # 4
    frequency:    2.5973323888
  - # 5
    frequency:    2.6200242709
  - # 6
    frequency:    4.5495937201
  - # 7
    frequency:    6.1440450157
  - # 8
    frequency:    6.3889068882
  - # 9
    frequency:    6.3889068882
  - # 10
    frequency:    9.4385464032
  - # 11
    frequency:    9.4385464032
  - # 12
    frequency:   12.5779712370
  - # 13
    frequency:   22.4519603976
  - # 14
    frequency:   22.4519603976
  - # 15
    frequency:   28.6216479879

- q-position: [    0.0000000,    0.1450000,    0.0000000 ]
  distance:    0.0371842
  band:
  - # 1
    frequency:    1.2007912713
  - # 2
    frequency:    1.2007912713
  - # 3
    frequency:    2.6815277075
  - # 4
    frequency:    2.6973083655
  - # 5
    frequency:    2.6973083655
  - # 6
    frequency:    4.6405912035
  - # 7
    frequency:    6.1629334966
  - # 8
    frequency:    6.4267662421
  - # 9
    frequency:    6.4267662421
  - # 10
    frequency:    9.4274930534
  - # 11
    frequency:    9.4274930534
  - # 12
    frequency:   12.6196742248
  - # 13
    frequency:   22.4194299263
  - # 14
    frequency:   22.4194299263
  - # 15
    frequency:   28.5102493376

- q-position: [    0.0000000,    0.1500000,    0.0000000 ]
  distance:    0.0384665
  band:
  - # 1
    frequency:    1.2366936033
  - # 2
    frequency:    1.2366936033
  - # 3
    frequency:    2.7414384549
  - # 4
    frequency:    2.7945422026
  - # 5
    frequency:    2.7945422026
  - # 6
    frequency:    4.7320935126
  - # 7
    frequency:    6.1822281186
  - # 8
    frequency:    6.4657780203
  - # 9
    frequency:    6.4657780203
  - # 10
    frequency:    9.4162474986
  - # 11
    frequency:    9.4162474986
  - # 12
    frequency:   12.6618539978
  - # 13
    frequency:   22.3860911080
  - # 14
    frequency:   22.3860911080
  - # 15
    frequency:   28.3959814633

- q-position: [    0.0000000,    0.1550000,    0.0000000 ]
  distance:    0.0397487
  band:
  - # 1
    frequency:    1.2720113764
  - # 2
    frequency:    1.2720113764
  - # 3
    frequency:    2.7998694883
  - # 4
    frequency:    2.8890937174
  - # 5
    frequency:    2.8890937174
  - # 6
    frequency:    4.8239132951
  - # 7
    frequency:    6.2019061398
  - # 8
    frequency:    6.5059140925
  - # 9
    frequency:    6.5059140925
  - # 10
    frequency:    9.4048286243
  - # 11
    frequency:    9.4048286243
  - # 12
    frequency:   12.7044181804
  - # 13
    frequency:   22.3519738282
  - # 14
    frequency:   22.3519738282
  - # 15
    frequency:   28.2789491694

- q-position: [    0.0000000,    0.1600000,    0.0000000 ]
  distance:    0.0410309
  band:
  - # 1
    frequency:    1.3068178944
  - # 2
    frequency:    1.3068178944
  - # 3
    frequency:    2.8569280544
  - # 4
    frequency:    2.9810097496
  - # 5
    frequency:    2.9810097496
  - # 6
    frequency:    4.9158764100
  - # 7
    frequency:    6.2219445959
  - # 8
    frequency:    6.5471444899
  - # 9
    frequency:    6.5471444899
  - # 10
    frequency:    9.3932557191
  - # 11
    frequency:    9.3932557191
  - # 12
    frequency:   12.7472735769
  - # 13
    frequency:   22.3171083250
  - # 14
    frequency:   22.3171083250
  - # 15
    frequency:   28.1592603192

- q-position: [    0.0000000,    0.1650000,    0.0000000 ]
  distance:    0.0423131
  band:
  - # 1
    frequency:    1.3411825346
  - # 2
    frequency:    1.3411825346
  - # 3
    frequency:    2.9127153280
  - # 4
    frequency:    3.0703268182
  - # 5
    frequency:    3.0703268182
  - # 6
    frequency:    5.0078218038
  - # 7
    frequency:    6.2423203367
  - # 8
    frequency:    6.5894374209
  - # 9
    frequency:    6.5894374209
  - # 10
    frequency:    9.3815484503
  - # 11
    frequency:    9.3815484503
  - # 12
    frequency:   12.7903264740
  - # 13
    frequency:   22.2815251480
  - # 14
    frequency:   22.2815251480
  - # 15
    frequency:   28.0370257763

- q-position: [    0.0000000,    0.1700000,    0.0000000 ]
  distance:    0.0435953
  band:
  - # 1
    frequency:    1.3751718842
  - # 2
    frequency:    1.3751718842
  - # 3
    frequency:    2.9673263025
  - # 4
    frequency:    3.1570732905
  - # 5
    frequency:    3.1570732905
  - # 6
    frequency:    5.0996011388
  - # 7
    frequency:    6.2630100609
  - # 8
    frequency:    6.6327592907
  - # 9
    frequency:    6.6327592907
  - # 10
    frequency:    9.3697268396
  - # 11
    frequency:    9.3697268396
  - # 12
    frequency:   12.8334829490
  - # 13
    frequency:   22.2452551218
  - # 14
    frequency:   22.2452551218
  - # 15
    frequency:   27.9123593442

- q-position: [    0.0000000,    0.1750000,    0.0000000 ]
  distance:    0.0448775
  band:
  - # 1
    frequency:    1.4088504297
  - # 2
    frequency:    1.4088504297
  - # 3
    frequency:    3.0208498484
  - # 4
    frequency:    3.2412711602
  - # 5
    frequency:    3.2412711602
  - # 6
    frequency:    5.1910782443
  - # 7
    frequency:    6.2839903509
  - # 8
    frequency:    6.6770747207
  - # 9
    frequency:    6.6770747207
  - # 10
    frequency:    9.3578112386
  - # 11
    frequency:    9.3578112386
  - # 12
    frequency:   12.8766491804
  - # 13
    frequency:   22.2083293103
  - # 14
    frequency:   22.2083293103
  - # 15
    frequency:   27.7853777007

- q-position: [    0.0000000,    0.1800000,    0.0000000 ]
  distance:    0.0461597
  band:
  - # 1
    frequency:    1.4422809392
  - # 2
    frequency:    1.4422809392
  - # 3
    frequency:    3.0733688837
  - # 4
    frequency:    3.3229375146
  - # 5
    frequency:    3.3229375146
  - # 6
    frequency:    5.2821284509
  - # 7
    frequency:    6.3052377054
  - # 8
    frequency:    6.7223465693
  - # 9
    frequency:    6.7223465693
  - # 10
    frequency:    9.3458223039
  - # 11
    frequency:    9.3458223039
  - # 12
    frequency:   12.9197317597
  - # 13
    frequency:   22.1707789858
  - # 14
    frequency:   22.1707789858
  - # 15
    frequency:   27.6562003289

- q-position: [    0.0000000,    0.1850000,    0.0000000 ]
  distance:    0.0474420
  band:
  - # 1
    frequency:    1.4755246307
  - # 2
    frequency:    1.4755246307
  - # 3
    frequency:    3.1249606154
  - # 4
    frequency:    3.4020857506
  - # 5
    frequency:    3.4020857506
  - # 6
    frequency:    5.3726378561
  - # 7
    frequency:    6.3267285715
  - # 8
    frequency:    6.7685359520
  - # 9
    frequency:    6.7685359520
  - # 10
    frequency:    9.3337809739
  - # 11
    frequency:    9.3337809739
  - # 12
    frequency:   12.9626380021
  - # 13
    frequency:   22.1326356005
  - # 14
    frequency:   22.1326356005
  - # 15
    frequency:   27.5249494442

- q-position: [    0.0000000,    0.1900000,    0.0000000 ]
  distance:    0.0487242
  band:
  - # 1
    frequency:    1.5086411917
  - # 2
    frequency:    1.5086411917
  - # 3
    frequency:    3.1756968145
  - # 4
    frequency:    3.4787265877
  - # 5
    frequency:    3.4787265877
  - # 6
    frequency:    5.4625025589
  - # 7
    frequency:    6.3484393759
  - # 8
    frequency:    6.8156022606
  - # 9
    frequency:    6.8156022606
  - # 10
    frequency:    9.3217084462
  - # 11
    frequency:    9.3217084462
  - # 12
    frequency:   13.0052762550
  - # 13
    frequency:   22.0939307622
  - # 14
    frequency:   22.0939307622
  - # 15
    frequency:   27.3917499161

- q-position: [    0.0000000,    0.1950000,    0.0000000 ]
  distance:    0.0500064
  band:
  - # 1
    frequency:    1.5416886951
  - # 2
    frequency:    1.5416886951
  - # 3
    frequency:    3.2256441023
  - # 4
    frequency:    3.5528689149
  - # 5
    frequency:    3.5528689149
  - # 6
    frequency:    5.5516278925
  - # 7
    frequency:    6.3703465541
  - # 8
    frequency:    6.8635031817
  - # 9
    frequency:    6.8635031817
  - # 10
    frequency:    9.3096261563
  - # 11
    frequency:    9.3096261563
  - # 12
    frequency:   13.0475562010
  - # 13
    frequency:   22.0546962137
  - # 14
    frequency:   22.0546962137
  - # 15
    frequency:   27.2567291858

- q-position: [    0.0000000,    0.2000000,    0.0000000 ]
  distance:    0.0512886
  band:
  - # 1
    frequency:    1.5747234437
  - # 2
    frequency:    1.5747234437
  - # 3
    frequency:    3.2748642293
  - # 4
    frequency:    3.6245204999
  - # 5
    frequency:    3.6245204999
  - # 6
    frequency:    5.6399276743
  - # 7
    frequency:    6.3924265792
  - # 8
    frequency:    6.9121947132
  - # 9
    frequency:    6.9121947132
  - # 10
    frequency:    9.2975557593
  - # 11
    frequency:    9.2975557593
  - # 12
    frequency:   13.0893891570
  - # 13
    frequency:   22.0149638159
  - # 14
    frequency:   22.0149638159
  - # 15
    frequency:   27.1200171784

- q-position: [    0.0000000,    0.2050000,    0.0000000 ]
  distance:    0.0525708
  band:
  - # 1
    frequency:    1.6077997691
  - # 2
    frequency:    1.6077997691
  - # 3
    frequency:    3.3234143361
  - # 4
    frequency:    3.6936885839
  - # 5
    frequency:    3.6936885839
  - # 6
    frequency:    5.7273234886
  - # 7
    frequency:    6.4146559891
  - # 8
    frequency:    6.9616311778
  - # 9
    frequency:    6.9616311778
  - # 10
    frequency:    9.2855191146
  - # 11
    frequency:    9.2855191146
  - # 12
    frequency:   13.1306883645
  - # 13
    frequency:   21.9747655361
  - # 14
    frequency:   21.9747655361
  - # 15
    frequency:   26.9817462099

- q-position: [    0.0000000,    0.2100000,    0.0000000 ]
  distance:    0.0538530