 135
   1   1
     5.870506686351774     0.000000000000000     0.000000000000000
     0.000000000000000     5.870506686351776     0.000000000000000
     0.000000000000000     0.000000000000000     5.870506686351776
   1   2
    -1.073783592581838     0.000000000000000     0.000000000000000
     0.000000000000000     0.313513974039862     0.000000000000000
     0.000000000000000     0.000000000000000     0.313513974039862
   1   3
    -1.073783592581838     0.000000000000000     0.000000000000000
     0.000000000000000     0.313513974039862     0.000000000000000
     0.000000000000000     0.000000000000000     0.313513974039862
   1   4
     0.313513974039862     0.000000000000000     0.000000000000000
     0.000000000000000    -1.073783592581838     0.000000000000000
     0.000000000000000     0.000000000000000     0.313513974039862
   1   5
    -0.254059950202924    -0.140083335389004     0.000000000000000
    -0.140083335389004    -0.254059950202924     0.000000000000000
     0.000000000000000     0.000000000000000     0.061254428324881
   1   6
    -0.254059950202924     0.140083335389004     0.000000000000000
     0.140083335389004    -0.254059950202924     0.000000000000000
     0.000000000000000     0.000000000000000     0.061254428324881
   1   7
     0.313513974039862     0.000000000000000     0.000000000000000
     0.000000000000000    -1.073783592581838     0.000000000000000
     0.000000000000000     0.000000000000000     0.313513974039862
   1   8
    -0.254059950202924     0.140083335389004     0.000000000000000
     0.140083335389004    -0.254059950202924     0.000000000000000
     0.000000000000000     0.000000000000000     0.061254428324881
   1   9
    -0.254059950202924    -0.140083335389004     0.000000000000000
    -0.140083335389004    -0.254059950202924     0.000000000000000
     0.000000000000000     0.000000000000000     0.061254428324881
   1  10
     0.313513974039862     0.000000000000000     0.000000000000000
     0.000000000000000     0.313513974039862     0.000000000000000
     0.000000000000000     0.000000000000000    -1.073783592581838
   1  11
    -0.254059950202924     0.000000000000000    -0.140083335389004
     0.000000000000000     0.061254428324881     0.000000000000000
    -0.140083335389004     0.000000000000000    -0.254059950202924
   1  12
    -0.254059950202924     0.000000000000000     0.140083335389004
     0.000000000000000     0.061254428324881     0.000000000000000
     0.140083335389004     0.000000000000000    -0.254059950202924
   1  13
     0.061254428324881     0.000000000000000     0.000000000000000
     0.000000000000000    -0.254059950202924    -0.140083335389004
     0.000000000000000    -0.140083335389004    -0.254059950202924
   1  14
    -0.192780709535373    -0.038783714127553    -0.038783714127553
    -0.038783714127553    -0.192780709535374    -0.038783714127553
    -0.038783714127553    -0.038783714127553    -0.192780709535373
   1  15
    -0.192780709535373     0.038783714127553     0.038783714127553
     0.038783714127553    -0.192780709535374    -0.038783714127553
     0.038783714127553    -0.038783714127553    -0.192780709535373
   1  16
     0.061254428324881     0.000000000000000     0.000000000000000
     0.000000000000000    -0.254059950202924     0.140083335389004
     0.000000000000000     0.140083335389004    -0.254059950202924
   1  17
    -0.192780709535374     0.038783714127553    -0.038783714127553
     0.038783714127553    -0.192780709535373     0.038783714127553
    -0.038783714127553     0.038783714127553    -0.192780709535373
   1  18
    -0.192780709535374    -0.038783714127553     0.038783714127553
    -0.038783714127553    -0.192780709535373     0.038783714127553
     0.038783714127553     0.038783714127553    -0.192780709535373
   1  19
     0.313513974039862     0.000000000000000     0.000000000000000
     0.000000000000000     0.313513974039862     0.000000000000000
     0.000000000000000     0.000000000000000    -1.073783592581838
   1  20
    -0.254059950202924     0.000000000000000     0.140083335389004
     0.000000000000000     0.061254428324881     0.000000000000000
     0.140083335389004     0.000000000000000    -0.254059950202924
   1  21
    -0.254059950202924     0.000000000000000    -0.140083335389004
     0.000000000000000     0.061254428324881     0.000000000000000
    -0.140083335389004     0.000000000000000    -0.254059950202924
   1  22
     0.061254428324881     0.000000000000000     0.000000000000000
     0.000000000000000    -0.254059950202924     0.140083335389004
     0.000000000000000     0.140083335389004    -0.254059950202924
   1  23
    -0.192780709535373    -0.038783714127553     0.038783714127553
    -0.038783714127553    -0.192780709535374     0.038783714127553
     0.038783714127553     0.038783714127553    -0.192780709535373
   1  24
    -0.192780709535374     0.038783714127553    -0.038783714127553
     0.038783714127553    -0.192780709535373     0.038783714127553
    -0.038783714127553     0.038783714127553    -0.192780709535373
   1  25
     0.061254428324881     0.000000000000000     0.000000000000000
     0.000000000000000    -0.254059950202924    -0.140083335389004
     0.000000000000000    -0.140083335389004    -0.254059950202924
   1  26
    -0.192780709535373     0.038783714127553     0.038783714127553
     0.038783714127553    -0.192780709535374    -0.038783714127553
     0.038783714127553    -0.038783714127553    -0.192780709535373
   1  27
    -0.192780709535373    -0.038783714127553    -0.038783714127553
    -0.038783714127553    -0.192780709535374    -0.038783714127553
    -0.038783714127553    -0.038783714127553    -0.192780709535373
   1  28
     0.040953196523337    -1.237331349640047    -1.237331349640047
    -1.237331349640047     0.040953196523337    -1.237331349640047
    -1.237331349640048    -1.237331349640047     0.040953196523338
   1  29
    -0.562874311293850     0.000000000000000     0.000000000000000
     0.000000000000000     0.242340615763852    -0.066014392985874
     0.000000000000000    -0.066014392985874     0.242340615763852
   1  30
     0.040953196523338     1.237331349640047     1.237331349640048
     1.237331349640047     0.040953196523337    -1.237331349640047
     1.237331349640047    -1.237331349640047     0.040953196523337
   1  31
     0.242340615763852     0.000000000000000    -0.066014392985874
     0.000000000000000    -0.562874311293850     0.000000000000000
    -0.066014392985874     0.000000000000000     0.242340615763852
   1  32
    -0.392239473392172     0.000000000000000     0.000000000000000
     0.000000000000000    -0.392239473392172     0.000000000000000
     0.000000000000000     0.000000000000000     0.659057093898510
   1  33
     0.242340615763852     0.000000000000000     0.066014392985874
     0.000000000000000    -0.562874311293850     0.000000000000000
     0.066014392985874     0.000000000000000     0.242340615763852
   1  34
     0.040953196523337     1.237331349640047    -1.237331349640047
     1.237331349640047     0.040953196523338     1.237331349640048
    -1.237331349640047     1.237331349640047     0.040953196523337
   1  35
    -0.562874311293850     0.000000000000000     0.000000000000000
     0.000000000000000     0.242340615763852     0.066014392985874
     0.000000000000000     0.066014392985874     0.242340615763852
   1  36
     0.040953196523337    -1.237331349640047     1.237331349640047
    -1.237331349640047     0.040953196523338     1.237331349640048
     1.237331349640047     1.237331349640047     0.040953196523337
   1  37
     0.242340615763852    -0.066014392985874     0.000000000000000
    -0.066014392985874     0.242340615763852     0.000000000000000
     0.000000000000000     0.000000000000000    -0.562874311293850
   1  38
    -0.392239473392172     0.000000000000000     0.000000000000000
     0.000000000000000     0.659057093898510     0.000000000000000
     0.000000000000000     0.000000000000000    -0.392239473392172
   1  39
     0.242340615763852     0.066014392985874     0.000000000000000
     0.066014392985874     0.242340615763852     0.000000000000000
     0.000000000000000     0.000000000000000    -0.562874311293850
   1  40
     0.659057093898510     0.000000000000000     0.000000000000000
     0.000000000000000    -0.392239473392172     0.000000000000000
     0.000000000000000     0.000000000000000    -0.392239473392172
   1  41
    -0.226086009985665     0.000000000000000     0.000000000000000
     0.000000000000000    -0.226086009985665     0.000000000000000
     0.000000000000000     0.000000000000000    -0.226086009985665
   1  42
     0.659057093898510     0.000000000000000     0.000000000000000
     0.000000000000000    -0.392239473392172     0.000000000000000
     0.000000000000000     0.000000000000000    -0.392239473392172
   1  43
     0.242340615763852     0.066014392985874     0.000000000000000
     0.066014392985874     0.242340615763852     0.000000000000000
     0.000000000000000     0.000000000000000    -0.562874311293850
   1  44
    -0.392239473392172     0.000000000000000     0.000000000000000
     0.000000000000000     0.659057093898510     0.000000000000000
     0.000000000000000     0.000000000000000    -0.392239473392172
   1  45
     0.242340615763852    -0.066014392985874     0.000000000000000
    -0.066014392985874     0.242340615763852     0.000000000000000
     0.000000000000000     0.000000000000000    -0.562874311293850
   1  46
     0.040953196523337    -1.237331349640047     1.237331349640047
    -1.237331349640047     0.040953196523337     1.237331349640047
     1.237331349640048     1.237331349640047     0.040953196523338
   1  47
    -0.562874311293850     0.000000000000000     0.000000000000000
     0.000000000000000     0.242340615763852     0.066014392985874
     0.000000000000000     0.066014392985874     0.242340615763852
   1  48
     0.040953196523337     1.237331349640047    -1.237331349640047
     1.237331349640047     0.040953196523337     1.237331349640047
    -1.237331349640047     1.237331349640048     0.040953196523338
   1  49
     0.242340615763852     0.000000000000000     0.066014392985874
     0.000000000000000    -0.562874311293850     0.000000000000000
     0.066014392985874     0.000000000000000     0.242340615763852
   1  50
    -0.392239473392172     0.000000000000000     0.000000000000000
     0.000000000000000    -0.392239473392172     0.000000000000000
     0.000000000000000     0.000000000000000     0.659057093898510
   1  51
     0.242340615763852     0.000000000000000    -0.066014392985874
     0.000000000000000    -0.562874311293850     0.000000000000000
    -0.066014392985874     0.000000000000000     0.242340615763852
   1  52
     0.040953196523337     1.237331349640047     1.237331349640047
     1.237331349640047     0.040953196523337    -1.237331349640047
     1.237331349640048    -1.237331349640047     0.040953196523338
   1  53
    -0.562874311293850     0.000000000000000     0.000000000000000
     0.000000000000000     0.242340615763852    -0.066014392985874
     0.000000000000000    -0.066014392985874     0.242340615763852
   1  54
     0.040953196523337    -1.237331349640047    -1.237331349640047
    -1.237331349640047     0.040953196523337    -1.237331349640047
    -1.237331349640048    -1.237331349640047     0.040953196523338
   1  55
    -0.014168110792718     0.334573133585662     0.000000000000000
     0.334573133585663    -0.014168110792718     0.000000000000000
     0.000000000000000     0.000000000000000    -1.148385246580079
   1  56
     0.220874944103246     0.000000000000000     0.000000000000000
     0.000000000000000     0.001858486401287     0.000000000000000
     0.000000000000000     0.000000000000000    -0.552403482793309
   1  57
    -0.014168110792718    -0.334573133585663     0.000000000000000
    -0.334573133585662    -0.014168110792718     0.000000000000000
     0.000000000000000     0.000000000000000    -1.148385246580079
   1  58
     0.001858486401287     0.000000000000000     0.000000000000000
     0.000000000000000     0.220874944103246     0.000000000000000
     0.000000000000000     0.000000000000000    -0.552403482793309
   1  59
     0.156194890423735     0.000000000000000     0.000000000000000
     0.000000000000000     0.156194890423735     0.000000000000000
     0.000000000000000     0.000000000000000    -0.647521888012609
   1  60
     0.001858486401287     0.000000000000000     0.000000000000000
     0.000000000000000     0.220874944103246     0.000000000000000
     0.000000000000000     0.000000000000000    -0.552403482793309
   1  61
    -0.014168110792718    -0.334573133585662     0.000000000000000
    -0.334573133585663    -0.014168110792718     0.000000000000000
     0.000000000000000     0.000000000000000    -1.148385246580079
   1  62
     0.220874944103246     0.000000000000000     0.000000000000000
     0.000000000000000     0.001858486401287     0.000000000000000
     0.000000000000000     0.000000000000000    -0.552403482793309
   1  63
    -0.014168110792718     0.334573133585662     0.000000000000000
     0.334573133585663    -0.014168110792718     0.000000000000000
     0.000000000000000     0.000000000000000    -1.148385246580079
   1  64
    -0.013698303417933     0.088471179627591     0.173798317109824
     0.088471179627591    -0.013698303417933     0.173798317109824
     0.062043599918998     0.062043599918998     0.220610855075379
   1  65
     0.159697765108879     0.000000000000000     0.000000000000000
     0.000000000000000     0.056048608953613     0.086552405668469
     0.000000000000000     0.015518266469598     0.199259894714879
   1  66
    -0.013698303417933    -0.088471179627591    -0.173798317109824
    -0.088471179627591    -0.013698303417933     0.173798317109824
    -0.062043599918998     0.062043599918998     0.220610855075379
   1  67
     0.056048608953613     0.000000000000000     0.086552405668469
     0.000000000000000     0.159697765108879     0.000000000000000
     0.015518266469598     0.000000000000000     0.199259894714879
   1  68
     0.226107766243239     0.000000000000000     0.000000000000000
     0.000000000000000     0.226107766243239     0.000000000000000
     0.000000000000000     0.000000000000000    -0.297354191107731
   1  69
     0.056048608953613     0.000000000000000    -0.086552405668469
     0.000000000000000     0.159697765108879     0.000000000000000
    -0.015518266469598     0.000000000000000     0.199259894714879
   1  70
    -0.013698303417933    -0.088471179627591     0.173798317109824
    -0.088471179627591    -0.013698303417933    -0.173798317109824
     0.062043599918998    -0.062043599918998     0.220610855075379
   1  71
     0.159697765108879     0.000000000000000     0.000000000000000
     0.000000000000000     0.056048608953613    -0.086552405668469
     0.000000000000000    -0.015518266469598     0.199259894714879
   1  72
    -0.013698303417933     0.088471179627591    -0.173798317109824
     0.088471179627591    -0.013698303417933    -0.173798317109824
    -0.062043599918998    -0.062043599918998     0.220610855075379
   1  73
    -0.013698303417933     0.088471179627591    -0.173798317109824
     0.088471179627591    -0.013698303417933    -0.173798317109824
    -0.062043599918998    -0.062043599918998     0.220610855075379
   1  74
     0.159697765108879     0.000000000000000     0.000000000000000
     0.000000000000000     0.056048608953613    -0.086552405668469
     0.000000000000000    -0.015518266469598     0.199259894714879
   1  75
    -0.013698303417933    -0.088471179627591     0.173798317109824
    -0.088471179627591    -0.013698303417933    -0.173798317109824
     0.062043599918998    -0.062043599918998     0.220610855075379
   1  76
     0.056048608953613     0.000000000000000    -0.086552405668469
     0.000000000000000     0.159697765108879     0.000000000000000
    -0.015518266469598     0.000000000000000     0.199259894714879
   1  77
     0.226107766243239     0.000000000000000     0.000000000000000
     0.000000000000000     0.226107766243239     0.000000000000000
     0.000000000000000     0.000000000000000    -0.297354191107731
   1  78
     0.056048608953613     0.000000000000000     0.086552405668469
     0.000000000000000     0.159697765108879     0.000000000000000
     0.015518266469598     0.000000000000000     0.199259894714879
   1  79
    -0.013698303417933    -0.088471179627591    -0.173798317109824
    -0.088471179627591    -0.013698303417933     0.173798317109824
    -0.062043599918998     0.062043599918998     0.220610855075379
   1  80
     0.159697765108879     0.000000000000000     0.000000000000000
     0.000000000000000     0.056048608953613     0.086552405668469
     0.000000000000000     0.015518266469598     0.199259894714879
   1  81
    -0.013698303417933     0.088471179627591     0.173798317109824
     0.088471179627591    -0.013698303417933     0.173798317109824
     0.062043599918998     0.062043599918998     0.220610855075379
   1  82
    -0.014168110792718     0.000000000000000     0.334573133585663
     0.000000000000000    -1.148385246580079     0.000000000000000
     0.334573133585662     0.000000000000000    -0.014168110792718
   1  83
     0.220874944103246     0.000000000000000     0.000000000000000
     0.000000000000000    -0.552403482793309     0.000000000000000
     0.000000000000000     0.000000000000000     0.001858486401287
   1  84
    -0.014168110792718     0.000000000000000    -0.334573133585663
     0.000000000000000    -1.148385246580079     0.000000000000000
    -0.334573133585662     0.000000000000000    -0.014168110792718
   1  85
    -0.013698303417933     0.173798317109824     0.088471179627591
     0.062043599918998     0.220610855075379     0.062043599918998
     0.088471179627591     0.173798317109824    -0.013698303417933
   1  86
     0.159697765108879     0.000000000000000     0.000000000000000
     0.000000000000000     0.199259894714879     0.015518266469598
     0.000000000000000     0.086552405668469     0.056048608953613
   1  87
    -0.013698303417933    -0.173798317109824    -0.088471179627591
    -0.062043599918998     0.220610855075379     0.062043599918998
    -0.088471179627591     0.173798317109824    -0.013698303417933
   1  88
    -0.013698303417933    -0.173798317109824     0.088471179627591
    -0.062043599918998     0.220610855075379    -0.062043599918998
     0.088471179627591    -0.173798317109824    -0.013698303417933
   1  89
     0.159697765108879     0.000000000000000     0.000000000000000
     0.000000000000000     0.199259894714879    -0.015518266469598
     0.000000000000000    -0.086552405668469     0.056048608953613
   1  90
    -0.013698303417933     0.173798317109824    -0.088471179627591
     0.062043599918998     0.220610855075379    -0.062043599918998
    -0.088471179627591    -0.173798317109824    -0.013698303417933
   1  91
     0.001858486401287     0.000000000000000     0.000000000000000
     0.000000000000000    -0.552403482793309     0.000000000000000
     0.000000000000000     0.000000000000000     0.220874944103246
   1  92
     0.156194890423735     0.000000000000000     0.000000000000000
     0.000000000000000    -0.647521888012609     0.000000000000000
     0.000000000000000     0.000000000000000     0.156194890423735
   1  93
     0.001858486401287     0.000000000000000     0.000000000000000
     0.000000000000000    -0.552403482793309     0.000000000000000
     0.000000000000000     0.000000000000000     0.220874944103246
   1  94
     0.056048608953613     0.086552405668469     0.000000000000000
     0.015518266469598     0.199259894714879     0.000000000000000
     0.000000000000000     0.000000000000000     0.159697765108879
   1  95
     0.226107766243239     0.000000000000000     0.000000000000000
     0.000000000000000    -0.297354191107731     0.000000000000000
     0.000000000000000     0.000000000000000     0.226107766243239
   1  96
     0.056048608953613    -0.086552405668469     0.000000000000000
    -0.015518266469598     0.199259894714879     0.000000000000000
     0.000000000000000     0.000000000000000     0.159697765108879
   1  97
     0.056048608953613    -0.086552405668469     0.000000000000000
    -0.015518266469598     0.199259894714879     0.000000000000000
     0.000000000000000     0.000000000000000     0.159697765108879
   1  98
     0.226107766243239     0.000000000000000     0.000000000000000
     0.000000000000000    -0.297354191107731     0.000000000000000
     0.000000000000000     0.000000000000000     0.226107766243239
   1  99
     0.056048608953613     0.086552405668469     0.000000000000000
     0.015518266469598     0.199259894714879     0.000000000000000
     0.000000000000000     0.000000000000000     0.159697765108879
   1 100
    -0.014168110792718     0.000000000000000    -0.334573133585662
     0.000000000000000    -1.148385246580079     0.000000000000000
    -0.334573133585663     0.000000000000000    -0.014168110792718
   1 101
     0.220874944103246     0.000000000000000     0.000000000000000
     0.000000000000000    -0.552403482793309     0.000000000000000
     0.000000000000000     0.000000000000000     0.001858486401287
   1 102
    -0.014168110792718     0.000000000000000     0.334573133585663
     0.000000000000000    -1.148385246580079     0.000000000000000
     0.334573133585662     0.000000000000000    -0.014168110792718
   1 103
    -0.013698303417933     0.173798317109824    -0.088471179627591
     0.062043599918998     0.220610855075379    -0.062043599918998
    -0.088471179627591    -0.173798317109824    -0.013698303417933
   1 104
     0.159697765108879     0.000000000000000     0.000000000000000
     0.000000000000000     0.199259894714879    -0.015518266469598
     0.000000000000000    -0.086552405668469     0.056048608953613
   1 105
    -0.013698303417933    -0.173798317109824     0.088471179627591
    -0.062043599918998     0.220610855075379    -0.062043599918998
     0.088471179627591    -0.173798317109824    -0.013698303417933
   1 106
    -0.013698303417933    -0.173798317109824    -0.088471179627591
    -0.062043599918998     0.220610855075379     0.062043599918998
    -0.088471179627591     0.173798317109824    -0.013698303417933
   1 107
     0.159697765108879     0.000000000000000     0.000000000000000
     0.000000000000000     0.199259894714879     0.015518266469598
     0.000000000000000     0.086552405668469     0.056048608953613
   1 108
    -0.013698303417933     0.173798317109824     0.088471179627591
     0.062043599918998     0.220610855075379     0.062043599918998
     0.088471179627591     0.173798317109824    -0.013698303417933
   1 109
    -1.148385246580079     0.000000000000000     0.000000000000000
     0.000000000000000    -0.014168110792718     0.334573133585663
     0.000000000000000     0.334573133585662    -0.014168110792718
   1 110
     0.220610855075379     0.062043599918998     0.062043599918998
     0.173798317109824    -0.013698303417933     0.088471179627591
     0.173798317109824     0.088471179627591    -0.013698303417933
   1 111
     0.220610855075379    -0.062043599918998    -0.062043599918998
    -0.173798317109824    -0.013698303417933     0.088471179627591
    -0.173798317109824     0.088471179627591    -0.013698303417933
   1 112
    -0.552403482793309     0.000000000000000     0.000000000000000
     0.000000000000000     0.220874944103246     0.000000000000000
     0.000000000000000     0.000000000000000     0.001858486401287
   1 113
     0.199259894714879     0.000000000000000     0.015518266469598
     0.000000000000000     0.159697765108879     0.000000000000000
     0.086552405668469     0.000000000000000     0.056048608953613
   1 114
     0.199259894714879     0.000000000000000    -0.015518266469598
     0.000000000000000     0.159697765108879     0.000000000000000
    -0.086552405668469     0.000000000000000     0.056048608953613
   1 115
    -1.148385246580079     0.000000000000000     0.000000000000000
     0.000000000000000    -0.014168110792718    -0.334573133585663
     0.000000000000000    -0.334573133585662    -0.014168110792718
   1 116
     0.220610855075379    -0.062043599918998     0.062043599918998
    -0.173798317109824    -0.013698303417933    -0.088471179627591
     0.173798317109824    -0.088471179627591    -0.013698303417933
   1 117
     0.220610855075379     0.062043599918998    -0.062043599918998
     0.173798317109824    -0.013698303417933    -0.088471179627591
    -0.173798317109824    -0.088471179627591    -0.013698303417933
   1 118
    -0.552403482793309     0.000000000000000     0.000000000000000
     0.000000000000000     0.001858486401287     0.000000000000000
     0.000000000000000     0.000000000000000     0.220874944103246
   1 119
     0.199259894714879     0.015518266469598     0.000000000000000
     0.086552405668469     0.056048608953613     0.000000000000000
     0.000000000000000     0.000000000000000     0.159697765108879
   1 120
     0.199259894714879    -0.015518266469598     0.000000000000000
    -0.086552405668469     0.056048608953613     0.000000000000000
     0.000000000000000     0.000000000000000     0.159697765108879
   1 121
    -0.647521888012609     0.000000000000000     0.000000000000000
     0.000000000000000     0.156194890423735     0.000000000000000
     0.000000000000000     0.000000000000000     0.156194890423735
   1 122
    -0.297354191107731     0.000000000000000     0.000000000000000
     0.000000000000000     0.226107766243239     0.000000000000000
     0.000000000000000     0.000000000000000     0.226107766243239
   1 123
    -0.297354191107731     0.000000000000000     0.000000000000000
     0.000000000000000     0.226107766243239     0.000000000000000
     0.000000000000000     0.000000000000000     0.226107766243239
   1 124
    -0.552403482793309     0.000000000000000     0.000000000000000
     0.000000000000000     0.001858486401287     0.000000000000000
     0.000000000000000     0.000000000000000     0.220874944103246
   1 125
     0.199259894714879    -0.015518266469598     0.000000000000000
    -0.086552405668469     0.056048608953613     0.000000000000000
     0.000000000000000     0.000000000000000     0.159697765108879
   1 126
     0.199259894714879     0.015518266469598     0.000000000000000
     0.086552405668469     0.056048608953613     0.000000000000000
     0.000000000000000     0.000000000000000     0.159697765108879
   1 127
    -1.148385246580079     0.000000000000000     0.000000000000000
     0.000000000000000    -0.014168110792718    -0.334573133585662
     0.000000000000000    -0.334573133585663    -0.014168110792718
   1 128
     0.220610855075379     0.062043599918998    -0.062043599918998
     0.173798317109824    -0.013698303417933    -0.088471179627591
    -0.173798317109824    -0.088471179627591    -0.013698303417933
   1 129
     0.220610855075379    -0.062043599918998     0.062043599918998
    -0.173798317109824    -0.013698303417933    -0.088471179627591
     0.173798317109824    -0.088471179627591    -0.013698303417933
   1 130
    -0.552403482793309     0.000000000000000     0.000000000000000
     0.000000000000000     0.220874944103246     0.000000000000000
     0.000000000000000     0.000000000000000     0.001858486401287
   1 131
     0.199259894714879     0.000000000000000    -0.015518266469598
     0.000000000000000     0.159697765108879     0.000000000000000
    -0.086552405668469     0.000000000000000     0.056048608953613
   1 132
     0.199259894714879     0.000000000000000     0.015518266469598
     0.000000000000000     0.159697765108879     0.000000000000000
     0.086552405668469     0.000000000000000     0.056048608953613
   1 133
    -1.148385246580079     0.000000000000000     0.000000000000000
     0.000000000000000    -0.014168110792718     0.334573133585663
     0.000000000000000     0.334573133585662    -0.014168110792718
   1 134
     0.220610855075379    -0.062043599918998    -0.062043599918998
    -0.173798317109824    -0.013698303417933     0.088471179627591
    -0.173798317109824     0.088471179627591    -0.013698303417933
   1 135
     0.220610855075379     0.062043599918998     0.062043599918998
     0.173798317109824    -0.013698303417933     0.088471179627591
     0.173798317109824     0.088471179627591    -0.013698303417933
   2   1
    -1.073783592581838     0.000000000000000     0.000000000000000
     0.000000000000000     0.313513974039862     0.000000000000000
     0.000000000000000     0.000000000000000     0.313513974039862
   2   2
     5.870506686351776     0.000000000000000     0.000000000000000
     0.000000000000000     5.870506686351774     0.000000000000000
     0.000000000000000     0.000000000000000     5.870506686351776
   2   3
    -1.073783592581838     0.000000000000000     0.000000000000000
     0.000000000000000     0.313513974039862     0.000000000000000
     0.000000000000000     0.000000000000000     0.313513974039862
   2   4
    -0.254059950202924     0.140083335389004     0.000000000000000
     0.140083335389004    -0.254059950202924     0.000000000000000
     0.000000000000000     0.000000000000000     0.061254428324881
   2   5
     0.313513974039862     0.000000000000000     0.000000000000000
     0.000000000000000    -1.073783592581838     0.000000000000000
     0.000000000000000     0.000000000000000     0.313513974039862
   2   6
    -0.254059950202924    -0.140083335389004     0.000000000000000
    -0.140083335389004    -0.254059950202924     0.000000000000000
     0.000000000000000     0.000000000000000     0.061254428324881
   2   7
    -0.254059950202924    -0.140083335389004     0.000000000000000
    -0.140083335389004    -0.254059950202924     0.000000000000000
     0.000000000000000     0.000000000000000     0.061254428324881
   2   8
     0.313513974039862     0.000000000000000     0.000000000000000
     0.000000000000000    -1.073783592581838     0.000000000000000