phonopy:
  version: 1.11.12
  nac_unit_conversion_factor: 14.400000
  configuration:
    atom_name: "Sr Ti O"
    dim: "3 3 3"
    band: "0.0 0.0 0.0  0.0 0.5 0.0  0.5 0.5 0.0  0.0 0.0 0.0  0.5 0.5 0.5  0.0 0.5 0.0,  0.5 0.5 0.0  0.5 0.5 0.5"
    band_labels: "\Gamma  X  M  \Gamma  R  X  M  R"
    band_points: "101"
    band_connection: ".FALSE."
    fc_symmetry: "0"
    force_constants: "READ"
    nac: ".TRUE."

supercell_matrix:
- [   3,   0,   0 ]
- [   0,   3,   0 ]
- [   0,   0,   3 ]

primitive_cell:
  lattice:
  - [     3.899501355072209,     0.000000000000000,     0.000000000000000 ] # a
  - [     0.000000000000000,     3.899501355072209,     0.000000000000000 ] # b
  - [     0.000000000000000,     0.000000000000000,     3.899501355072209 ] # c
  points:
  - symbol: Sr # 1
    coordinates: [  0.000000000000000,  0.000000000000000,  0.000000000000000 ]
    mass: 87.620000
  - symbol: Ti # 2
    coordinates: [  0.500000000000000,  0.500000000000000,  0.500000000000000 ]
    mass: 47.867000
  - symbol: O  # 3
    coordinates: [  0.500000000000000,  0.500000000000000,  0.000000000000000 ]
    mass: 15.999400
  - symbol: O  # 4
    coordinates: [  0.500000000000000,  0.000000000000000,  0.500000000000000 ]
    mass: 15.999400
  - symbol: O  # 5
    coordinates: [  0.000000000000000,  0.500000000000000,  0.500000000000000 ]
    mass: 15.999400
  reciprocal_lattice: # without 2pi
  - [     0.256443044621402,     0.000000000000000,     0.000000000000000 ] # a*
  - [     0.000000000000000,     0.256443044621402,     0.000000000000000 ] # b*
  - [     0.000000000000000,     0.000000000000000,     0.256443044621402 ] # c*

unit_cell:
  lattice:
  - [     3.899501355072209,     0.000000000000000,     0.000000000000000 ] # a
  - [     0.000000000000000,     3.899501355072209,     0.000000000000000 ] # b
  - [     0.000000000000000,     0.000000000000000,     3.899501355072209 ] # c
  points:
  - symbol: Sr # 1
    coordinates: [  0.000000000000000,  0.000000000000000,  0.000000000000000 ]
    mass: 87.620000
    reduced_to: 1
  - symbol: Ti # 2
    coordinates: [  0.500000000000000,  0.500000000000000,  0.500000000000000 ]
    mass: 47.867000
    reduced_to: 2
  - symbol: O  # 3
    coordinates: [  0.500000000000000,  0.500000000000000,  0.000000000000000 ]
    mass: 15.999400
    reduced_to: 3
  - symbol: O  # 4
    coordinates: [  0.500000000000000,  0.000000000000000,  0.500000000000000 ]
    mass: 15.999400
    reduced_to: 4
  - symbol: O  # 5
    coordinates: [  0.000000000000000,  0.500000000000000,  0.500000000000000 ]
    mass: 15.999400
    reduced_to: 5

supercell:
  lattice:
  - [    11.698504065216628,     0.000000000000000,     0.000000000000000 ] # a
  - [     0.000000000000000,    11.698504065216628,     0.000000000000000 ] # b
  - [     0.000000000000000,     0.000000000000000,    11.698504065216628 ] # c
  points:
  - symbol: Sr # 1
    coordinates: [  0.000000000000000,  0.000000000000000,  0.000000000000000 ]
    mass: 87.620000
    reduced_to: 1
  - symbol: Sr # 2
    coordinates: [  0.333333333333333,  0.000000000000000,  0.000000000000000 ]
    mass: 87.620000
    reduced_to: 1
  - symbol: Sr # 3
    coordinates: [  0.666666666666667,  0.000000000000000,  0.000000000000000 ]
    mass: 87.620000
    reduced_to: 1
  - symbol: Sr # 4
    coordinates: [  0.000000000000000,  0.333333333333333,  0.000000000000000 ]
    mass: 87.620000
    reduced_to: 1
  - symbol: Sr # 5
    coordinates: [  0.333333333333333,  0.333333333333333,  0.000000000000000 ]
    mass: 87.620000
    reduced_to: 1
  - symbol: Sr # 6
    coordinates: [  0.666666666666667,  0.333333333333333,  0.000000000000000 ]
    mass: 87.620000
    reduced_to: 1
  - symbol: Sr # 7
    coordinates: [  0.000000000000000,  0.666666666666667,  0.000000000000000 ]
    mass: 87.620000
    reduced_to: 1
  - symbol: Sr # 8
    coordinates: [  0.333333333333333,  0.666666666666667,  0.000000000000000 ]
    mass: 87.620000
    reduced_to: 1
  - symbol: Sr # 9
    coordinates: [  0.666666666666667,  0.666666666666667,  0.000000000000000 ]
    mass: 87.620000
    reduced_to: 1
  - symbol: Sr # 10
    coordinates: [  0.000000000000000,  0.000000000000000,  0.333333333333333 ]
    mass: 87.620000
    reduced_to: 1
  - symbol: Sr # 11
    coordinates: [  0.333333333333333,  0.000000000000000,  0.333333333333333 ]
    mass: 87.620000
    reduced_to: 1
  - symbol: Sr # 12
    coordinates: [  0.666666666666667,  0.000000000000000,  0.333333333333333 ]
    mass: 87.620000
    reduced_to: 1
  - symbol: Sr # 13
    coordinates: [  0.000000000000000,  0.333333333333333,  0.333333333333333 ]
    mass: 87.620000
    reduced_to: 1
  - symbol: Sr # 14
    coordinates: [  0.333333333333333,  0.333333333333333,  0.333333333333333 ]
    mass: 87.620000
    reduced_to: 1
  - symbol: Sr # 15
    coordinates: [  0.666666666666667,  0.333333333333333,  0.333333333333333 ]
    mass: 87.620000
    reduced_to: 1
  - symbol: Sr # 16
    coordinates: [  0.000000000000000,  0.666666666666667,  0.333333333333333 ]
    mass: 87.620000
    reduced_to: 1
  - symbol: Sr # 17
    coordinates: [  0.333333333333333,  0.666666666666667,  0.333333333333333 ]
    mass: 87.620000
    reduced_to: 1
  - symbol: Sr # 18
    coordinates: [  0.666666666666667,  0.666666666666667,  0.333333333333333 ]
    mass: 87.620000
    reduced_to: 1
  - symbol: Sr # 19
    coordinates: [  0.000000000000000,  0.000000000000000,  0.666666666666667 ]
    mass: 87.620000
    reduced_to: 1
  - symbol: Sr # 20
    coordinates: [  0.333333333333333,  0.000000000000000,  0.666666666666667 ]
    mass: 87.620000
    reduced_to: 1
  - symbol: Sr # 21
    coordinates: [  0.666666666666667,  0.000000000000000,  0.666666666666667 ]
    mass: 87.620000
    reduced_to: 1
  - symbol: Sr # 22
    coordinates: [  0.000000000000000,  0.333333333333333,  0.666666666666667 ]
    mass: 87.620000
    reduced_to: 1
  - symbol: Sr # 23
    coordinates: [  0.333333333333333,  0.333333333333333,  0.666666666666667 ]
    mass: 87.620000
    reduced_to: 1
  - symbol: Sr # 24
    coordinates: [  0.666666666666667,  0.333333333333333,  0.666666666666667 ]
    mass: 87.620000
    reduced_to: 1
  - symbol: Sr # 25
    coordinates: [  0.000000000000000,  0.666666666666667,  0.666666666666667 ]
    mass: 87.620000
    reduced_to: 1
  - symbol: Sr # 26
    coordinates: [  0.333333333333333,  0.666666666666667,  0.666666666666667 ]
    mass: 87.620000
    reduced_to: 1
  - symbol: Sr # 27
    coordinates: [  0.666666666666667,  0.666666666666667,  0.666666666666667 ]
    mass: 87.620000
    reduced_to: 1
  - symbol: Ti # 28
    coordinates: [  0.166666666666667,  0.166666666666667,  0.166666666666667 ]
    mass: 47.867000
    reduced_to: 28
  - symbol: Ti # 29
    coordinates: [  0.500000000000000,  0.166666666666667,  0.166666666666667 ]
    mass: 47.867000
    reduced_to: 28
  - symbol: Ti # 30
    coordinates: [  0.833333333333333,  0.166666666666667,  0.166666666666667 ]
    mass: 47.867000
    reduced_to: 28
  - symbol: Ti # 31
    coordinates: [  0.166666666666667,  0.500000000000000,  0.166666666666667 ]
    mass: 47.867000
    reduced_to: 28
  - symbol: Ti # 32
    coordinates: [  0.500000000000000,  0.500000000000000,  0.166666666666667 ]
    mass: 47.867000
    reduced_to: 28
  - symbol: Ti # 33
    coordinates: [  0.833333333333333,  0.500000000000000,  0.166666666666667 ]
    mass: 47.867000
    reduced_to: 28
  - symbol: Ti # 34
    coordinates: [  0.166666666666667,  0.833333333333333,  0.166666666666667 ]
    mass: 47.867000
    reduced_to: 28
  - symbol: Ti # 35
    coordinates: [  0.500000000000000,  0.833333333333333,  0.166666666666667 ]
    mass: 47.867000
    reduced_to: 28
  - symbol: Ti # 36
    coordinates: [  0.833333333333333,  0.833333333333333,  0.166666666666667 ]
    mass: 47.867000
    reduced_to: 28
  - symbol: Ti # 37
    coordinates: [  0.166666666666667,  0.166666666666667,  0.500000000000000 ]
    mass: 47.867000
    reduced_to: 28
  - symbol: Ti # 38
    coordinates: [  0.500000000000000,  0.166666666666667,  0.500000000000000 ]
    mass: 47.867000
    reduced_to: 28
  - symbol: Ti # 39
    coordinates: [  0.833333333333333,  0.166666666666667,  0.500000000000000 ]
    mass: 47.867000
    reduced_to: 28
  - symbol: Ti # 40
    coordinates: [  0.166666666666667,  0.500000000000000,  0.500000000000000 ]
    mass: 47.867000
    reduced_to: 28
  - symbol: Ti # 41
    coordinates: [  0.500000000000000,  0.500000000000000,  0.500000000000000 ]
    mass: 47.867000
    reduced_to: 28
  - symbol: Ti # 42
    coordinates: [  0.833333333333333,  0.500000000000000,  0.500000000000000 ]
    mass: 47.867000
    reduced_to: 28
  - symbol: Ti # 43
    coordinates: [  0.166666666666667,  0.833333333333333,  0.500000000000000 ]
    mass: 47.867000
    reduced_to: 28
  - symbol: Ti # 44
    coordinates: [  0.500000000000000,  0.833333333333333,  0.500000000000000 ]
    mass: 47.867000
    reduced_to: 28
  - symbol: Ti # 45
    coordinates: [  0.833333333333333,  0.833333333333333,  0.500000000000000 ]
    mass: 47.867000
    reduced_to: 28
  - symbol: Ti # 46
    coordinates: [  0.166666666666667,  0.166666666666667,  0.833333333333333 ]
    mass: 47.867000
    reduced_to: 28
  - symbol: Ti # 47
    coordinates: [  0.500000000000000,  0.166666666666667,  0.833333333333333 ]
    mass: 47.867000
    reduced_to: 28
  - symbol: Ti # 48
    coordinates: [  0.833333333333333,  0.166666666666667,  0.833333333333333 ]
    mass: 47.867000
    reduced_to: 28
  - symbol: Ti # 49
    coordinates: [  0.166666666666667,  0.500000000000000,  0.833333333333333 ]
    mass: 47.867000
    reduced_to: 28
  - symbol: Ti # 50
    coordinates: [  0.500000000000000,  0.500000000000000,  0.833333333333333 ]
    mass: 47.867000
    reduced_to: 28
  - symbol: Ti # 51
    coordinates: [  0.833333333333333,  0.500000000000000,  0.833333333333333 ]
    mass: 47.867000
    reduced_to: 28
  - symbol: Ti # 52
    coordinates: [  0.166666666666667,  0.833333333333333,  0.833333333333333 ]
    mass: 47.867000
    reduced_to: 28
  - symbol: Ti # 53
    coordinates: [  0.500000000000000,  0.833333333333333,  0.833333333333333 ]
    mass: 47.867000
    reduced_to: 28
  - symbol: Ti # 54
    coordinates: [  0.833333333333333,  0.833333333333333,  0.833333333333333 ]
    mass: 47.867000
    reduced_to: 28
  - symbol: O  # 55
    coordinates: [  0.166666666666667,  0.166666666666667,  0.000000000000000 ]
    mass: 15.999400
    reduced_to: 55
  - symbol: O  # 56
    coordinates: [  0.500000000000000,  0.166666666666667,  0.000000000000000 ]
    mass: 15.999400
    reduced_to: 55
  - symbol: O  # 57
    coordinates: [  0.833333333333333,  0.166666666666667,  0.000000000000000 ]
    mass: 15.999400
    reduced_to: 55
  - symbol: O  # 58
    coordinates: [  0.166666666666667,  0.500000000000000,  0.000000000000000 ]
    mass: 15.999400
    reduced_to: 55
  - symbol: O  # 59
    coordinates: [  0.500000000000000,  0.500000000000000,  0.000000000000000 ]
    mass: 15.999400
    reduced_to: 55
  - symbol: O  # 60
    coordinates: [  0.833333333333333,  0.500000000000000,  0.000000000000000 ]
    mass: 15.999400
    reduced_to: 55
  - symbol: O  # 61
    coordinates: [  0.166666666666667,  0.833333333333333,  0.000000000000000 ]
    mass: 15.999400
    reduced_to: 55
  - symbol: O  # 62
    coordinates: [  0.500000000000000,  0.833333333333333,  0.000000000000000 ]
    mass: 15.999400
    reduced_to: 55
  - symbol: O  # 63
    coordinates: [  0.833333333333333,  0.833333333333333,  0.000000000000000 ]
    mass: 15.999400
    reduced_to: 55
  - symbol: O  # 64
    coordinates: [  0.166666666666667,  0.166666666666667,  0.333333333333333 ]
    mass: 15.999400
    reduced_to: 55
  - symbol: O  # 65
    coordinates: [  0.500000000000000,  0.166666666666667,  0.333333333333333 ]
    mass: 15.999400
    reduced_to: 55
  - symbol: O  # 66
    coordinates: [  0.833333333333333,  0.166666666666667,  0.333333333333333 ]
    mass: 15.999400
    reduced_to: 55
  - symbol: O  # 67
    coordinates: [  0.166666666666667,  0.500000000000000,  0.333333333333333 ]
    mass: 15.999400
    reduced_to: 55
  - symbol: O  # 68
    coordinates: [  0.500000000000000,  0.500000000000000,  0.333333333333333 ]
    mass: 15.999400
    reduced_to: 55
  - symbol: O  # 69
    coordinates: [  0.833333333333333,  0.500000000000000,  0.333333333333333 ]
    mass: 15.999400
    reduced_to: 55
  - symbol: O  # 70
    coordinates: [  0.166666666666667,  0.833333333333333,  0.333333333333333 ]
    mass: 15.999400
    reduced_to: 55
  - symbol: O  # 71
    coordinates: [  0.500000000000000,  0.833333333333333,  0.333333333333333 ]
    mass: 15.999400
    reduced_to: 55
  - symbol: O  # 72
    coordinates: [  0.833333333333333,  0.833333333333333,  0.333333333333333 ]
    mass: 15.999400
    reduced_to: 55
  - symbol: O  # 73
    coordinates: [  0.166666666666667,  0.166666666666667,  0.666666666666667 ]
    mass: 15.999400
    reduced_to: 55
  - symbol: O  # 74
    coordinates: [  0.500000000000000,  0.166666666666667,  0.666666666666667 ]
    mass: 15.999400
    reduced_to: 55
  - symbol: O  # 75
    coordinates: [  0.833333333333333,  0.166666666666667,  0.666666666666667 ]
    mass: 15.999400
    reduced_to: 55
  - symbol: O  # 76
    coordinates: [  0.166666666666667,  0.500000000000000,  0.666666666666667 ]
    mass: 15.999400
    reduced_to: 55
  - symbol: O  # 77
    coordinates: [  0.500000000000000,  0.500000000000000,  0.666666666666667 ]
    mass: 15.999400
    reduced_to: 55
  - symbol: O  # 78
    coordinates: [  0.833333333333333,  0.500000000000000,  0.666666666666667 ]
    mass: 15.999400
    reduced_to: 55
  - symbol: O  # 79
    coordinates: [  0.166666666666667,  0.833333333333333,  0.666666666666667 ]
    mass: 15.999400
    reduced_to: 55
  - symbol: O  # 80
    coordinates: [  0.500000000000000,  0.833333333333333,  0.666666666666667 ]
    mass: 15.999400
    reduced_to: 55
  - symbol: O  # 81
    coordinates: [  0.833333333333333,  0.833333333333333,  0.666666666666667 ]
    mass: 15.999400
    reduced_to: 55
  - symbol: O  # 82
    coordinates: [  0.166666666666667,  0.000000000000000,  0.166666666666667 ]
    mass: 15.999400
    reduced_to: 82
  - symbol: O  # 83
    coordinates: [  0.500000000000000,  0.000000000000000,  0.166666666666667 ]
    mass: 15.999400
    reduced_to: 82
  - symbol: O  # 84
    coordinates: [  0.833333333333333,  0.000000000000000,  0.166666666666667 ]
    mass: 15.999400
    reduced_to: 82
  - symbol: O  # 85
    coordinates: [  0.166666666666667,  0.333333333333333,  0.166666666666667 ]
    mass: 15.999400
    reduced_to: 82
  - symbol: O  # 86
    coordinates: [  0.500000000000000,  0.333333333333333,  0.166666666666667 ]
    mass: 15.999400
    reduced_to: 82
  - symbol: O  # 87
    coordinates: [  0.833333333333333,  0.333333333333333,  0.166666666666667 ]
    mass: 15.999400
    reduced_to: 82
  - symbol: O  # 88
    coordinates: [  0.166666666666667,  0.666666666666667,  0.166666666666667 ]
    mass: 15.999400
    reduced_to: 82
  - symbol: O  # 89
    coordinates: [  0.500000000000000,  0.666666666666667,  0.166666666666667 ]
    mass: 15.999400
    reduced_to: 82
  - symbol: O  # 90
    coordinates: [  0.833333333333333,  0.666666666666667,  0.166666666666667 ]
    mass: 15.999400
    reduced_to: 82
  - symbol: O  # 91
    coordinates: [  0.166666666666667,  0.000000000000000,  0.500000000000000 ]
    mass: 15.999400
    reduced_to: 82
  - symbol: O  # 92
    coordinates: [  0.500000000000000,  0.000000000000000,  0.500000000000000 ]
    mass: 15.999400
    reduced_to: 82
  - symbol: O  # 93
    coordinates: [  0.833333333333333,  0.000000000000000,  0.500000000000000 ]
    mass: 15.999400
    reduced_to: 82
  - symbol: O  # 94
    coordinates: [  0.166666666666667,  0.333333333333333,  0.500000000000000 ]
    mass: 15.999400
    reduced_to: 82
  - symbol: O  # 95
    coordinates: [  0.500000000000000,  0.333333333333333,  0.500000000000000 ]
    mass: 15.999400
    reduced_to: 82
  - symbol: O  # 96
    coordinates: [  0.833333333333333,  0.333333333333333,  0.500000000000000 ]
    mass: 15.999400
    reduced_to: 82
  - symbol: O  # 97
    coordinates: [  0.166666666666667,  0.666666666666667,  0.500000000000000 ]
    mass: 15.999400
    reduced_to: 82
  - symbol: O  # 98
    coordinates: [  0.500000000000000,  0.666666666666667,  0.500000000000000 ]
    mass: 15.999400
    reduced_to: 82
  - symbol: O  # 99
    coordinates: [  0.833333333333333,  0.666666666666667,  0.500000000000000 ]
    mass: 15.999400
    reduced_to: 82
  - symbol: O  # 100
    coordinates: [  0.166666666666667,  0.000000000000000,  0.833333333333333 ]
    mass: 15.999400
    reduced_to: 82
  - symbol: O  # 101
    coordinates: [  0.500000000000000,  0.000000000000000,  0.833333333333333 ]
    mass: 15.999400
    reduced_to: 82
  - symbol: O  # 102
    coordinates: [  0.833333333333333,  0.000000000000000,  0.833333333333333 ]
    mass: 15.999400
    reduced_to: 82
  - symbol: O  # 103
    coordinates: [  0.166666666666667,  0.333333333333333,  0.833333333333333 ]
    mass: 15.999400
    reduced_to: 82
  - symbol: O  # 104
    coordinates: [  0.500000000000000,  0.333333333333333,  0.833333333333333 ]
    mass: 15.999400
    reduced_to: 82
  - symbol: O  # 105
    coordinates: [  0.833333333333333,  0.333333333333333,  0.833333333333333 ]
    mass: 15.999400
    reduced_to: 82
  - symbol: O  # 106
    coordinates: [  0.166666666666667,  0.666666666666667,  0.833333333333333 ]
    mass: 15.999400
    reduced_to: 82
  - symbol: O  # 107
    coordinates: [  0.500000000000000,  0.666666666666667,  0.833333333333333 ]
    mass: 15.999400
    reduced_to: 82
  - symbol: O  # 108
    coordinates: [  0.833333333333333,  0.666666666666667,  0.833333333333333 ]
    mass: 15.999400
    reduced_to: 82
  - symbol: O  # 109
    coordinates: [  0.000000000000000,  0.166666666666667,  0.166666666666667 ]
    mass: 15.999400
    reduced_to: 109
  - symbol: O  # 110
    coordinates: [  0.333333333333333,  0.166666666666667,  0.166666666666667 ]
    mass: 15.999400
    reduced_to: 109
  - symbol: O  # 111
    coordinates: [  0.666666666666667,  0.166666666666667,  0.166666666666667 ]
    mass: 15.999400
    reduced_to: 109
  - symbol: O  # 112
    coordinates: [  0.000000000000000,  0.500000000000000,  0.166666666666667 ]
    mass: 15.999400
    reduced_to: 109
  - symbol: O  # 113
    coordinates: [  0.333333333333333,  0.500000000000000,  0.166666666666667 ]
    mass: 15.999400
    reduced_to: 109
  - symbol: O  # 114
    coordinates: [  0.666666666666667,  0.500000000000000,  0.166666666666667 ]
    mass: 15.999400
    reduced_to: 109
  - symbol: O  # 115
    coordinates: [  0.000000000000000,  0.833333333333333,  0.166666666666667 ]
    mass: 15.999400
    reduced_to: 109
  - symbol: O  # 116
    coordinates: [  0.333333333333333,  0.833333333333333,  0.166666666666667 ]
    mass: 15.999400
    reduced_to: 109
  - symbol: O  # 117
    coordinates: [  0.666666666666667,  0.833333333333333,  0.166666666666667 ]
    mass: 15.999400
    reduced_to: 109
  - symbol: O  # 118
    coordinates: [  0.000000000000000,  0.166666666666667,  0.500000000000000 ]
    mass: 15.999400
    reduced_to: 109
  - symbol: O  # 119
    coordinates: [  0.333333333333333,  0.166666666666667,  0.500000000000000 ]
    mass: 15.999400
    reduced_to: 109
  - symbol: O  # 120
    coordinates: [  0.666666666666667,  0.166666666666667,  0.500000000000000 ]
    mass: 15.999400
    reduced_to: 109
  - symbol: O  # 121
    coordinates: [  0.000000000000000,  0.500000000000000,  0.500000000000000 ]
    mass: 15.999400
    reduced_to: 109
  - symbol: O  # 122
    coordinates: [  0.333333333333333,  0.500000000000000,  0.500000000000000 ]
    mass: 15.999400
    reduced_to: 109
  - symbol: O  # 123
    coordinates: [  0.666666666666667,  0.500000000000000,  0.500000000000000 ]
    mass: 15.999400
    reduced_to: 109
  - symbol: O  # 124
    coordinates: [  0.000000000000000,  0.833333333333333,  0.500000000000000 ]
    mass: 15.999400
    reduced_to: 109
  - symbol: O  # 125
    coordinates: [  0.333333333333333,  0.833333333333333,  0.500000000000000 ]
    mass: 15.999400
    reduced_to: 109
  - symbol: O  # 126
    coordinates: [  0.666666666666667,  0.833333333333333,  0.500000000000000 ]
    mass: 15.999400
    reduced_to: 109
  - symbol: O  # 127
    coordinates: [  0.000000000000000,  0.166666666666667,  0.833333333333333 ]
    mass: 15.999400
    reduced_to: 109
  - symbol: O  # 128
    coordinates: [  0.333333333333333,  0.166666666666667,  0.833333333333333 ]
    mass: 15.999400
    reduced_to: 109
  - symbol: O  # 129
    coordinates: [  0.666666666666667,  0.166666666666667,  0.833333333333333 ]
    mass: 15.999400
    reduced_to: 109
  - symbol: O  # 130
    coordinates: [  0.000000000000000,  0.500000000000000,  0.833333333333333 ]
    mass: 15.999400
    reduced_to: 109
  - symbol: O  # 131
    coordinates: [  0.333333333333333,  0.500000000000000,  0.833333333333333 ]
    mass: 15.999400
    reduced_to: 109
  - symbol: O  # 132
    coordinates: [  0.666666666666667,  0.500000000000000,  0.833333333333333 ]
    mass: 15.999400
    reduced_to: 109
  - symbol: O  # 133
    coordinates: [  0.000000000000000,  0.833333333333333,  0.833333333333333 ]
    mass: 15.999400
    reduced_to: 109
  - symbol: O  # 134
    coordinates: [  0.333333333333333,  0.833333333333333,  0.833333333333333 ]
    mass: 15.999400
    reduced_to: 109
  - symbol: O  # 135
    coordinates: [  0.666666666666667,  0.833333333333333,  0.833333333333333 ]
    mass: 15.999400
    reduced_to: 109

born_effective_charge:
- # 1 (Sr)
  - [  2.542414000000000,  0.000000000000000,  0.000000000000000 ]
  - [  0.000000000000000,  2.542414000000000,  0.000000000000000 ]
  - [  0.000000000000000,  0.000000000000000,  2.542414000000000 ]
- # 2 (Ti)
  - [  7.424047300000001,  0.000000000000000,  0.000000000000000 ]
  - [  0.000000000000000,  7.424047300000001,  0.000000000000000 ]
  - [  0.000000000000000,  0.000000000000000,  7.424047300000001 ]
- # 3 (O)
  - [ -2.030116000000000,  0.000000000000000,  0.000000000000000 ]
  - [  0.000000000000000, -2.030116000000000,  0.000000000000000 ]
  - [  0.000000000000000,  0.000000000000000, -5.906229300000000 ]
- # 4 (O)
  - [ -2.030116000000000,  0.000000000000000,  0.000000000000000 ]
  - [  0.000000000000000, -5.906229300000000,  0.000000000000000 ]
  - [  0.000000000000000,  0.000000000000000, -2.030116000000000 ]
- # 5 (O)
  - [ -5.906229300000000,  0.000000000000000,  0.000000000000000 ]
  - [  0.000000000000000, -2.030116000000000,  0.000000000000000 ]
  - [  0.000000000000000,  0.000000000000000, -2.030116000000000 ]

dielectric_constant:
  - [  6.495608000000000,  0.000000000000000,  0.000000000000000 ]
  - [  0.000000000000000,  6.495608000000000,  0.000000000000000 ]
  - [  0.000000000000000,  0.000000000000000,  6.495608000000000 ]
