nqpoint: 404    
npath: 4      
segment_nqpoint:
- 101
- 101
- 101
- 101
reciprocal_lattice:
- [  -0.18310888,   0.18310888,   0.18310888 ] # a*
- [   0.18310888,  -0.18310888,   0.18310888 ] # b*
- [   0.18310888,   0.18310888,  -0.18310888 ] # c*
natom: 2      
lattice:
- [     0.000000000000000,     2.730615835179053,     2.730615835179053 ] # a
- [     2.730615835179053,     0.000000000000000,     2.730615835179053 ] # b
- [     2.730615835179053,     2.730615835179053,     0.000000000000000 ] # c
points:
- symbol: Si # 1
  coordinates: [  0.875000000000000,  0.875000000000000,  0.875000000000000 ]
  mass: 28.085500
- symbol: Si # 2
  coordinates: [  0.125000000000000,  0.125000000000000,  0.125000000000000 ]
  mass: 28.085500
supercell_matrix:
- [   16,    0,    0 ]
- [    0,   16,    0 ]
- [    0,    0,   16 ]

phonon:
- q-position: [    0.0000000,    0.0000000,    0.0000000 ]
  distance:    0.0000000
  label: '\Gamma'
  band:
  - # 1
    frequency:    0.0000001897
  - # 2
    frequency:    0.0000002732
  - # 3
    frequency:    0.0000003924
  - # 4
    frequency:   15.5464733218
  - # 5
    frequency:   15.5464733218
  - # 6
    frequency:   15.5464733218

- q-position: [    0.0050000,    0.0000000,    0.0050000 ]
  distance:    0.0018311
  band:
  - # 1
    frequency:    0.0867288339
  - # 2
    frequency:    0.0867288339
  - # 3
    frequency:    0.1565099550
  - # 4
    frequency:   15.5458872894
  - # 5
    frequency:   15.5458872894
  - # 6
    frequency:   15.5463911152

- q-position: [    0.0100000,    0.0000000,    0.0100000 ]
  distance:    0.0036622
  band:
  - # 1
    frequency:    0.1734326658
  - # 2
    frequency:    0.1734326658
  - # 3
    frequency:    0.3129799494
  - # 4
    frequency:   15.5441288812
  - # 5
    frequency:   15.5441288812
  - # 6
    frequency:   15.5461429551

- q-position: [    0.0150000,    0.0000000,    0.0150000 ]
  distance:    0.0054933
  band:
  - # 1
    frequency:    0.2600864669
  - # 2
    frequency:    0.2600864669
  - # 3
    frequency:    0.4693701166
  - # 4
    frequency:   15.5411971776
  - # 5
    frequency:   15.5411971776
  - # 6
    frequency:   15.5457242338

- q-position: [    0.0200000,    0.0000000,    0.0200000 ]
  distance:    0.0073244
  band:
  - # 1
    frequency:    0.3466651534
  - # 2
    frequency:    0.3466651534
  - # 3
    frequency:    0.6256407769
  - # 4
    frequency:   15.5370906859
  - # 5
    frequency:   15.5370906859
  - # 6
    frequency:   15.5451273148

- q-position: [    0.0250000,    0.0000000,    0.0250000 ]
  distance:    0.0091554
  band:
  - # 1
    frequency:    0.4331435573
  - # 2
    frequency:    0.4331435573
  - # 3
    frequency:    0.7817525297
  - # 4
    frequency:   15.5318074009
  - # 5
    frequency:   15.5318074009
  - # 6
    frequency:   15.5443415968

- q-position: [    0.0300000,    0.0000000,    0.0300000 ]
  distance:    0.0109865
  band:
  - # 1
    frequency:    0.5194963946
  - # 2
    frequency:    0.5194963946
  - # 3
    frequency:    0.9376663431
  - # 4
    frequency:   15.5253448880
  - # 5
    frequency:   15.5253448880
  - # 6
    frequency:   15.5433536023

- q-position: [    0.0350000,    0.0000000,    0.0350000 ]
  distance:    0.0128176
  band:
  - # 1
    frequency:    0.6056982305
  - # 2
    frequency:    0.6056982305
  - # 3
    frequency:    1.0933436413
  - # 4
    frequency:   15.5177003890
  - # 5
    frequency:   15.5177003890
  - # 6
    frequency:   15.5421470897

- q-position: [    0.0400000,    0.0000000,    0.0400000 ]
  distance:    0.0146487
  band:
  - # 1
    frequency:    0.6917234405
  - # 2
    frequency:    0.6917234405
  - # 3
    frequency:    1.2487463888
  - # 4
    frequency:   15.5088709492
  - # 5
    frequency:   15.5088709492
  - # 6
    frequency:   15.5407031883

- q-position: [    0.0450000,    0.0000000,    0.0450000 ]
  distance:    0.0164798
  band:
  - # 1
    frequency:    0.7775461676
  - # 2
    frequency:    0.7775461676
  - # 3
    frequency:    1.4038371705
  - # 4
    frequency:   15.4988535639
  - # 5
    frequency:   15.4988535639
  - # 6
    frequency:   15.5390005529

- q-position: [    0.0500000,    0.0000000,    0.0500000 ]
  distance:    0.0183109
  band:
  - # 1
    frequency:    0.8631402746
  - # 2
    frequency:    0.8631402746
  - # 3
    frequency:    1.5585792679
  - # 4
    frequency:   15.4876453442
  - # 5
    frequency:   15.4876453442
  - # 6
    frequency:   15.5370155392

- q-position: [    0.0550000,    0.0000000,    0.0550000 ]
  distance:    0.0201420
  band:
  - # 1
    frequency:    0.9484792912
  - # 2
    frequency:    0.9484792912
  - # 3
    frequency:    1.7129367304
  - # 4
    frequency:   15.4752436984
  - # 5
    frequency:   15.4752436984
  - # 6
    frequency:   15.5347223948

- q-position: [    0.0600000,    0.0000000,    0.0600000 ]
  distance:    0.0219731
  band:
  - # 1
    frequency:    1.0335363558
  - # 2
    frequency:    1.0335363558
  - # 3
    frequency:    1.8668744414
  - # 4
    frequency:   15.4616465295
  - # 5
    frequency:   15.4616465295
  - # 6
    frequency:   15.5320934666

- q-position: [    0.0650000,    0.0000000,    0.0650000 ]
  distance:    0.0238042
  band:
  - # 1
    frequency:    1.1182841513
  - # 2
    frequency:    1.1182841513
  - # 3
    frequency:    2.0203581785
  - # 4
    frequency:   15.4468524446
  - # 5
    frequency:   15.4468524446
  - # 6
    frequency:   15.5290994204

- q-position: [    0.0700000,    0.0000000,    0.0700000 ]
  distance:    0.0256352
  band:
  - # 1
    frequency:    1.2026948362
  - # 2
    frequency:    1.2026948362
  - # 3
    frequency:    2.1733546689
  - # 4
    frequency:   15.4308609754
  - # 5
    frequency:   15.4308609754
  - # 6
    frequency:   15.5257094715

- q-position: [    0.0750000,    0.0000000,    0.0750000 ]
  distance:    0.0274663
  band:
  - # 1
    frequency:    1.2867399695
  - # 2
    frequency:    1.2867399695
  - # 3
    frequency:    2.3258316371
  - # 4
    frequency:   15.4136728069
  - # 5
    frequency:   15.4136728069
  - # 6
    frequency:   15.5218916230

- q-position: [    0.0800000,    0.0000000,    0.0800000 ]
  distance:    0.0292974
  band:
  - # 1
    frequency:    1.3703904314
  - # 2
    frequency:    1.3703904314
  - # 3
    frequency:    2.4777578478
  - # 4
    frequency:   15.3952900123
  - # 5
    frequency:   15.3952900123
  - # 6
    frequency:   15.5176129105

- q-position: [    0.0850000,    0.0000000,    0.0850000 ]
  distance:    0.0311285
  band:
  - # 1
    frequency:    1.4536163385
  - # 2
    frequency:    1.4536163385
  - # 3
    frequency:    2.6291031415
  - # 4
    frequency:   15.3757162915
  - # 5
    frequency:   15.3757162915
  - # 6
    frequency:   15.5128396494

- q-position: [    0.0900000,    0.0000000,    0.0900000 ]
  distance:    0.0329596
  band:
  - # 1
    frequency:    1.5363869559
  - # 2
    frequency:    1.5363869559
  - # 3
    frequency:    2.7798384639
  - # 4
    frequency:   15.3549572104
  - # 5
    frequency:   15.3549572104
  - # 6
    frequency:   15.5075376834

- q-position: [    0.0950000,    0.0000000,    0.0950000 ]
  distance:    0.0347907
  band:
  - # 1
    frequency:    1.6186706056
  - # 2
    frequency:    1.6186706056
  - # 3
    frequency:    2.9299358887
  - # 4
    frequency:   15.3330204396
  - # 5
    frequency:   15.3330204396
  - # 6
    frequency:   15.5016726313

- q-position: [    0.1000000,    0.0000000,    0.1000000 ]
  distance:    0.0366218
  band:
  - # 1
    frequency:    1.7004345729
  - # 2
    frequency:    1.7004345729
  - # 3
    frequency:    3.0793686345
  - # 4
    frequency:   15.3099159878
  - # 5
    frequency:   15.3099159878
  - # 6
    frequency:   15.4952101295

- q-position: [    0.1050000,    0.0000000,    0.1050000 ]
  distance:    0.0384529
  band:
  - # 1
    frequency:    1.7816450115
  - # 2
    frequency:    1.7816450115
  - # 3
    frequency:    3.2281110751
  - # 4
    frequency:   15.2856564303
  - # 5
    frequency:   15.2856564303
  - # 6
    frequency:   15.4881160688

- q-position: [    0.1100000,    0.0000000,    0.1100000 ]
  distance:    0.0402840
  band:
  - # 1
    frequency:    1.8622668490
  - # 2
    frequency:    1.8622668490
  - # 3
    frequency:    3.3761387434
  - # 4
    frequency:   15.2602571271
  - # 5
    frequency:   15.2602571271
  - # 6
    frequency:   15.4803568221

- q-position: [    0.1150000,    0.0000000,    0.1150000 ]
  distance:    0.0421150
  band:
  - # 1
    frequency:    1.9422636937
  - # 2
    frequency:    1.9422636937
  - # 3
    frequency:    3.5234283309
  - # 4
    frequency:   15.2337364305
  - # 5
    frequency:   15.2337364305
  - # 6
    frequency:   15.4718994623

- q-position: [    0.1200000,    0.0000000,    0.1200000 ]
  distance:    0.0439461
  band:
  - # 1
    frequency:    2.0215977445
  - # 2
    frequency:    2.0215977445
  - # 3
    frequency:    3.6699576801
  - # 4
    frequency:   15.2061158781
  - # 5
    frequency:   15.2061158781
  - # 6
    frequency:   15.4627119679

- q-position: [    0.1250000,    0.0000000,    0.1250000 ]
  distance:    0.0457772
  band:
  - # 1
    frequency:    2.1002297052
  - # 2
    frequency:    2.1002297052
  - # 3
    frequency:    3.8157057736
  - # 4
    frequency:   15.1774203702
  - # 5
    frequency:   15.1774203702
  - # 6
    frequency:   15.4527634141

- q-position: [    0.1300000,    0.0000000,    0.1300000 ]
  distance:    0.0476083
  band:
  - # 1
    frequency:    2.1781187057
  - # 2
    frequency:    2.1781187057
  - # 3
    frequency:    3.9606527168
  - # 4
    frequency:   15.1476783278
  - # 5
    frequency:   15.1476783278
  - # 6
    frequency:   15.4420241490

- q-position: [    0.1350000,    0.0000000,    0.1350000 ]
  distance:    0.0494394
  band:
  - # 1
    frequency:    2.2552222311
  - # 2
    frequency:    2.2552222311
  - # 3
    frequency:    4.1047797184
  - # 4
    frequency:   15.1169218306
  - # 5
    frequency:   15.1169218306
  - # 6
    frequency:   15.4304659533

- q-position: [    0.1400000,    0.0000000,    0.1400000 ]
  distance:    0.0512705
  band:
  - # 1
    frequency:    2.3314960614
  - # 2
    frequency:    2.3314960614
  - # 3
    frequency:    4.2480690656
  - # 4
    frequency:   15.0851867314
  - # 5
    frequency:   15.0851867314
  - # 6
    frequency:   15.4180621818

- q-position: [    0.1450000,    0.0000000,    0.1450000 ]
  distance:    0.0531016
  band:
  - # 1
    frequency:    2.4068942228
  - # 2
    frequency:    2.4068942228
  - # 3
    frequency:    4.3905040969
  - # 4
    frequency:   15.0525127464
  - # 5
    frequency:   15.0525127464
  - # 6
    frequency:   15.4047878868

- q-position: [    0.1500000,    0.0000000,    0.1500000 ]
  distance:    0.0549327
  band:
  - # 1
    frequency:    2.4813689539
  - # 2
    frequency:    2.4813689539
  - # 3
    frequency:    4.5320691727
  - # 4
    frequency:   15.0189435176
  - # 5
    frequency:   15.0189435176
  - # 6
    frequency:   15.3906199213

- q-position: [    0.1550000,    0.0000000,    0.1550000 ]
  distance:    0.0567638
  band:
  - # 1
    frequency:    2.5548706880
  - # 2
    frequency:    2.5548706880
  - # 3
    frequency:    4.6727496431
  - # 4
    frequency:   14.9845266478
  - # 5
    frequency:   14.9845266478
  - # 6
    frequency:   15.3755370242

- q-position: [    0.1600000,    0.0000000,    0.1600000 ]
  distance:    0.0585948
  band:
  - # 1
    frequency:    2.6273480535
  - # 2
    frequency:    2.6273480535
  - # 3
    frequency:    4.8125318144
  - # 4
    frequency:   14.9493137044
  - # 5
    frequency:   14.9493137044
  - # 6
    frequency:   15.3595198840

- q-position: [    0.1650000,    0.0000000,    0.1650000 ]
  distance:    0.0604259
  band:
  - # 1
    frequency:    2.6987478958
  - # 2
    frequency:    2.6987478958
  - # 3
    frequency:    4.9514029152
  - # 4
    frequency:   14.9133601921
  - # 5
    frequency:   14.9133601921
  - # 6
    frequency:   15.3425511839

- q-position: [    0.1700000,    0.0000000,    0.1700000 ]
  distance:    0.0622570
  band:
  - # 1
    frequency:    2.7690153206
  - # 2
    frequency:    2.7690153206
  - # 3
    frequency:    5.0893510615
  - # 4
    frequency:   14.8767254924
  - # 5
    frequency:   14.8767254924
  - # 6
    frequency:   15.3246156264

- q-position: [    0.1750000,    0.0000000,    0.1750000 ]
  distance:    0.0640881
  band:
  - # 1
    frequency:    2.8380937621
  - # 2
    frequency:    2.8380937621
  - # 3
    frequency:    5.2263652220
  - # 4
    frequency:   14.8394727691
  - # 5
    frequency:   14.8394727691
  - # 6
    frequency:   15.3056999397

- q-position: [    0.1800000,    0.0000000,    0.1800000 ]
  distance:    0.0659192
  band:
  - # 1
    frequency:    2.9059250780
  - # 2
    frequency:    2.9059250780
  - # 3
    frequency:    5.3624351841
  - # 4
    frequency:   14.8016688381
  - # 5
    frequency:   14.8016688381
  - # 6
    frequency:   15.2857928645

- q-position: [    0.1850000,    0.0000000,    0.1850000 ]
  distance:    0.0677503
  band:
  - # 1
    frequency:    2.9724496718
  - # 2
    frequency:    2.9724496718
  - # 3
    frequency:    5.4975515207
  - # 4
    frequency:   14.7633840023
  - # 5
    frequency:   14.7633840023
  - # 6
    frequency:   15.2648851237

- q-position: [    0.1900000,    0.0000000,    0.1900000 ]
  distance:    0.0695814
  band:
  - # 1
    frequency:    3.0376066449
  - # 2
    frequency:    3.0376066449
  - # 3
    frequency:    5.6317055589
  - # 4
    frequency:   14.7246918490
  - # 5
    frequency:   14.7246918490
  - # 6
    frequency:   15.2429693756

- q-position: [    0.1950000,    0.0000000,    0.1950000 ]
  distance:    0.0714125
  band:
  - # 1
    frequency:    3.1013339798
  - # 2
    frequency:    3.1013339798
  - # 3
    frequency:    5.7648893500
  - # 4
    frequency:   14.6856690121
  - # 5
    frequency:   14.6856690121
  - # 6
    frequency:   15.2200401503

- q-position: [    0.2000000,    0.0000000,    0.2000000 ]
  distance:    0.0732436
  band:
  - # 1
    frequency:    3.1635687547
  - # 2
    frequency:    3.1635687547
  - # 3
    frequency:    5.8970956416
  - # 4
    frequency:   14.6463948963
  - # 5
    frequency:   14.6463948963
  - # 6
    frequency:   15.1960937728

- q-position: [    0.2050000,    0.0000000,    0.2050000 ]
  distance:    0.0750746
  band:
  - # 1
    frequency:    3.2242473913
  - # 2
    frequency:    3.2242473913
  - # 3
    frequency:    6.0283178524
  - # 4
    frequency:   14.6069513664
  - # 5
    frequency:   14.6069513664
  - # 6
    frequency:   15.1711282724

- q-position: [    0.2100000,    0.0000000,    0.2100000 ]
  distance:    0.0769057
  band:
  - # 1
    frequency:    3.2833059349
  - # 2
    frequency:    3.2833059349
  - # 3
    frequency:    6.1585500491
  - # 4
    frequency:   14.5674224003
  - # 5
    frequency:   14.5674224003
  - # 6
    frequency:   15.1451432803

- q-position: [    0.2150000,    0.0000000,    0.2150000 ]
  distance:    0.0787368
  band:
  - # 1
    frequency:    3.3406803682
  - # 2
    frequency:    3.3406803682
  - # 3
    frequency:    6.2877869263
  - # 4
    frequency:   14.5278937085
  - # 5
    frequency:   14.5278937085
  - # 6
    frequency:   15.1181399182

- q-position: [    0.2200000,    0.0000000,    0.2200000 ]
  distance:    0.0805679
  band:
  - # 1
    frequency:    3.3963069573
  - # 2
    frequency:    3.3963069573
  - # 3
    frequency:    6.4160237889
  - # 4
    frequency:   14.4884523203
  - # 5
    frequency:   14.4884523203
  - # 6
    frequency:   15.0901206767

- q-position: [    0.2250000,    0.0000000,    0.2250000 ]
  distance:    0.0823990
  band:
  - # 1
    frequency:    3.4501226287
  - # 2
    frequency:    3.4501226287
  - # 3
    frequency:    6.5432565372
  - # 4
    frequency:   14.4491861404
  - # 5
    frequency:   14.4491861404
  - # 6
    frequency:   15.0610892884

- q-position: [    0.2300000,    0.0000000,    0.2300000 ]
  distance:    0.0842301
  band:
  - # 1
    frequency:    3.5020653775
  - # 2
    frequency:    3.5020653775
  - # 3
    frequency:    6.6694816548
  - # 4
    frequency:   14.4101834760
  - # 5
    frequency:   14.4101834760
  - # 6
    frequency:   15.0310505952

- q-position: [    0.2350000,    0.0000000,    0.2350000 ]
  distance:    0.0860612
  band:
  - # 1
    frequency:    3.5520747027
  - # 2
    frequency:    3.5520747027
  - # 3
    frequency:    6.7946961988
  - # 4
    frequency:   14.3715325409
  - # 5
    frequency:   14.3715325409
  - # 6
    frequency:   15.0000104120

- q-position: [    0.2400000,    0.0000000,    0.2400000 ]
  distance:    0.0878923
  band:
  - # 1
    frequency:    3.6000920674
  - # 2
    frequency:    3.6000920674
  - # 3
    frequency:    6.9188977929
  - # 4
    frequency:   14.3333209370
  - # 5
    frequency:   14.3333209370
  - # 6
    frequency:   14.9679753888

- q-position: [    0.2450000,    0.0000000,    0.2450000 ]
  distance:    0.0897233
  band:
  - # 1
    frequency:    3.6460613822
  - # 2
    frequency:    3.6460613822
  - # 3
    frequency:    7.0420846216
  - # 4
    frequency:   14.2956351192
  - # 5
    frequency:   14.2956351192
  - # 6
    frequency:   14.9349528726

- q-position: [    0.2500000,    0.0000000,    0.2500000 ]
  distance:    0.0915544
  band:
  - # 1
    frequency:    3.6899295052
  - # 2
    frequency:    3.6899295052
  - # 3
    frequency:    7.1642554271
  - # 4
    frequency:   14.2585598486
  - # 5
    frequency:   14.2585598486
  - # 6
    frequency:   14.9009507707

- q-position: [    0.2550000,    0.0000000,    0.2550000 ]
  distance:    0.0933855
  band:
  - # 1
    frequency:    3.7316467562
  - # 2
    frequency:    3.7316467562
  - # 3
    frequency:    7.2854095078
  - # 4
    frequency:   14.2221776389
  - # 5
    frequency:   14.2221776389
  - # 6
    frequency:   14.8659774171

- q-position: [    0.2600000,    0.0000000,    0.2600000 ]
  distance:    0.0952166
  band:
  - # 1
    frequency:    3.7711674384
  - # 2
    frequency:    3.7711674384
  - # 3
    frequency:    7.4055467166
  - # 4
    frequency:   14.1865682012
  - # 5
    frequency:   14.1865682012
  - # 6
    frequency:   14.8300414425

- q-position: [    0.2650000,    0.0000000,    0.2650000 ]
  distance:    0.0970477
  band:
  - # 1
    frequency:    3.8084503632
  - # 2
    frequency:    3.8084503632
  - # 3
    frequency:    7.5246674617
  - # 4
    frequency:   14.1518078949
  - # 5
    frequency:   14.1518078949
  - # 6
    frequency:   14.7931516510

- q-position: [    0.2700000,    0.0000000,    0.2700000 ]
  distance:    0.0988788
  band:
  - # 1
    frequency:    3.8434593704
  - # 2
    frequency:    3.8434593704
  - # 3
    frequency:    7.6427727064
  - # 4
    frequency:   14.1179691909
  - # 5
    frequency:   14.1179691909
  - # 6
    frequency:   14.7553169032

- q-position: [    0.2750000,    0.0000000,    0.2750000 ]
  distance:    0.1007099
  band:
  - # 1
    frequency:    3.8761638388
  - # 2
    frequency:    3.8761638388
  - # 3
    frequency:    7.7598639689
  - # 4
    frequency:   14.0851201533
  - # 5
    frequency:   14.0851201533
  - # 6
    frequency:   14.7165460068

- q-position: [    0.2800000,    0.0000000,    0.2800000 ]
  distance:    0.1025410
  band:
  - # 1
    frequency:    3.9065391784
  - # 2
    frequency:    3.9065391784
  - # 3
    frequency:    7.8759433222
  - # 4
    frequency:   14.0533239478
  - # 5
    frequency:   14.0533239478
  - # 6
    frequency:   14.6768476171

- q-position: [    0.2850000,    0.0000000,    0.2850000 ]
  distance:    0.1043721
  band:
  - # 1
    frequency:    3.9345672998
  - # 2
    frequency:    3.9345672998
  - # 3
    frequency:    7.9910133921
  - # 4
    frequency:   14.0226383832
  - # 5
    frequency:   14.0226383832
  - # 6
    frequency:   14.6362301467

- q-position: [    0.2900000,    0.0000000,    0.2900000 ]
  distance:    0.1062031
  band:
  - # 1
    frequency:    3.9602370504
  - # 2
    frequency:    3.9602370504
  - # 3
    frequency:    8.1050773539
  - # 4
    frequency:   13.9931154930
  - # 5
    frequency:   13.9931154930
  - # 6
    frequency:   14.5947016853

- q-position: [    0.2950000,    0.0000000,    0.2950000 ]
  distance:    0.1080342
  band:
  - # 1
    frequency:    3.9835446141
  - # 2
    frequency:    3.9835446141
  - # 3
    frequency:    8.2181389276
  - # 4
    frequency:   13.9648011644
  - # 5
    frequency:   13.9648011644
  - # 6
    frequency:   14.5522699313

- q-position: [    0.3000000,    0.0000000,    0.3000000 ]
  distance:    0.1098653
  band:
  - # 1
    frequency:    4.0044938653
  - # 2
    frequency:    4.0044938653
  - # 3
    frequency:    8.3302023697
  - # 4
    frequency:   13.9377348196
  - # 5
    frequency:   13.9377348196
  - # 6
    frequency:   14.5089421335

- q-position: [    0.3050000,    0.0000000,    0.3050000 ]
  distance:    0.1116964
  band:
  - # 1
    frequency:    4.0230966728
  - # 2
    frequency:    4.0230966728
  - # 3
    frequency:    8.4412724636
  - # 4
    frequency:   13.9119491560
  - # 5
    frequency:   13.9119491560
  - # 6
    frequency:   14.4647250455

- q-position: [    0.3100000,    0.0000000,    0.3100000 ]
  distance:    0.1135275
  band:
  - # 1
    frequency:    4.0393731474
  - # 2
    frequency:    4.0393731474
  - # 3
    frequency:    8.5513545055
  - # 4
    frequency:   13.8874699486
  - # 5
    frequency:   13.8874699486
  - # 6
    frequency:   14.4196248904

- q-position: [    0.3150000,    0.0000000,    0.3150000 ]
  distance:    0.1153586
  band:
  - # 1
    frequency:    4.0533518294
  - # 2
    frequency:    4.0533518294
  - # 3
    frequency:    8.6604542881
  - # 4
    frequency:   13.8643159194
  - # 5
    frequency:   13.8643159194
  - # 6
    frequency:   14.3736473373

- q-position: [    0.3200000,    0.0000000,    0.3200000 ]
  distance:    0.1171897
  band:
  - # 1
    frequency:    4.0650698114
  - # 2
    frequency:    4.0650698114
  - # 3
    frequency:    8.7685780800
  - # 4
    frequency:   13.8424986754
  - # 5
    frequency:   13.8424986754
  - # 6
    frequency:   14.3267974892

- q-position: [    0.3250000,    0.0000000,    0.3250000 ]
  distance:    0.1190208
  band:
  - # 1
    frequency:    4.0745727953
  - # 2
    frequency:    4.0745727953
  - # 3
    frequency:    8.8757326016
  - # 4
    frequency:   13.8220227162
  - # 5
    frequency:   13.8220227162
  - # 6
    frequency:   14.2790798810

- q-position: [    0.3300000,    0.0000000,    0.3300000 ]
  distance:    0.1208519
  band:
  - # 1
    frequency:    4.0819150797
  - # 2
    frequency:    4.0819150797
  - # 3
    frequency:    8.9819249969
  - # 4
    frequency:   13.8028855126
  - # 5
    frequency:   13.8028855126
  - # 6
    frequency:   14.2304984877

- q-position: [    0.3350000,    0.0000000,    0.3350000 ]
  distance:    0.1226829
  band:
  - # 1
    frequency:    4.0871594796
  - # 2
    frequency:    4.0871594796
  - # 3
    frequency:    9.0871628015
  - # 4
    frequency:   13.7850776524
  - # 5
    frequency:   13.7850776524
  - # 6
    frequency:   14.1810567421

- q-position: [    0.3400000,    0.0000000,    0.3400000 ]
  distance:    0.1245140
  band:
  - # 1
    frequency:    4.0903771771
  - # 2
    frequency:    4.0903771771
  - # 3
    frequency:    9.1914539068
  - # 4
    frequency:   13.7685830537
  - # 5
    frequency:   13.7685830537
  - # 6
    frequency:   14.1307575608

- q-position: [    0.3450000,    0.0000000,    0.3450000 ]
  distance:    0.1263451
  band:
  - # 1
    frequency:    4.0916475045
  - # 2
    frequency:    4.0916475045
  - # 3
    frequency:    9.2948065200
  - # 4
    frequency:   13.7533792392
  - # 5
    frequency:   13.7533792392
  - # 6
    frequency:   14.0796033786

- q-position: [    0.3500000,    0.0000000,    0.3500000 ]
  distance:    0.1281762
  band:
  - # 1
    frequency:    4.0910576634
  - # 2
    frequency:    4.0910576634
  - # 3
    frequency:    9.3972291211
  - # 4
    frequency:   13.7394376692
  - # 5
    frequency:   13.7394376692
  - # 6
    frequency:   14.0275961888

- q-position: [    0.3550000,    0.0000000,    0.3550000 ]
  distance:    0.1300073
  band:
  - # 1
    frequency:    4.0887023811
  - # 2
    frequency:    4.0887023811
  - # 3
    frequency:    9.4987304155
  - # 4
    frequency:   13.7267241261
  - # 5
    frequency:   13.7267241261
  - # 6
    frequency:   13.9747375899

- q-position: [    0.3600000,    0.0000000,    0.3600000 ]
  distance:    0.1318384
  band:
  - # 1
    frequency:    4.0846835080
  - # 2
    frequency:    4.0846835080
  - # 3
    frequency:    9.5993192847
  - # 4
    frequency:   13.7151991440
  - # 5
    frequency:   13.7151991440
  - # 6
    frequency:   13.9210288367

- q-position: [    0.3650000,    0.0000000,    0.3650000 ]
  distance:    0.1336695
  band:
  - # 1
    frequency:    4.0791095615
  - # 2
    frequency:    4.0791095615
  - # 3
    frequency:    9.6990047333
  - # 4
    frequency:   13.7048184777
  - # 5
    frequency:   13.7048184777
  - # 6
    frequency:   13.8664708948

- q-position: [    0.3700000,    0.0000000,    0.3700000 ]
  distance:    0.1355006
  band:
  - # 1
    frequency:    4.0720952173
  - # 2
    frequency:    4.0720952173
  - # 3
    frequency:    9.7977958343
  - # 4
    frequency:   13.6955336028
  - # 5
    frequency:   13.6955336028
  - # 6
    frequency:   13.8110644976

- q-position: [    0.3750000,    0.0000000,    0.3750000 ]
  distance:    0.1373317
  band:
  - # 1
    frequency:    4.0637607547
  - # 2
    frequency:    4.0637607547
  - # 3
    frequency:    9.8957016723
  - # 4
    frequency:   13.6872922394
  - # 5
    frequency:   13.6872922394
  - # 6
    frequency:   13.7548102051

- q-position: [    0.3800000,    0.0000000,    0.3800000 ]
  distance:    0.1391627
  band:
  - # 1
    frequency:    4.0542314593
  - # 2
    frequency:    4.0542314593
  - # 3
    frequency:    9.9927312856
  - # 4
    frequency:   13.6800388930
  - # 5
    frequency:   13.6800388930
  - # 6
    frequency:   13.6977084619

- q-position: [    0.3850000,    0.0000000,    0.3850000 ]
  distance:    0.1409938
  band:
  - # 1
    frequency:    4.0436369864
  - # 2
    frequency:    4.0436369864
  - # 3
    frequency:   10.0888936079
  - # 4
    frequency:   13.6397596554
  - # 5
    frequency:   13.6737154044
  - # 6
    frequency:   13.6737154044

- q-position: [    0.3900000,    0.0000000,    0.3900000 ]
  distance:    0.1428249
  band:
  - # 1
    frequency:    4.0321106884
  - # 2
    frequency:    4.0321106884
  - # 3
    frequency:   10.1841974096
  - # 4
    frequency:   13.5809641711
  - # 5
    frequency:   13.6682615027
  - # 6
    frequency:   13.6682615027

- q-position: [    0.3950000,    0.0000000,    0.3950000 ]
  distance:    0.1446560
  band:
  - # 1
    frequency:    4.0197889114
  - # 2
    frequency:    4.0197889114
  - # 3
    frequency:   10.2786512394
  - # 4
    frequency:   13.5213224454
  - # 5
    frequency:   13.6636153548
  - # 6
    frequency:   13.6636153548

- q-position: [    0.4000000,    0.0000000,    0.4000000 ]
  distance:    0.1464871
  band:
  - # 1
    frequency:    4.0068102613
  - # 2
    frequency:    4.0068102613
  - # 3
    frequency:   10.3722633686
  - # 4
    frequency:   13.4608350152
  - # 5
    frequency:   13.6597141050
  - # 6
    frequency:   13.6597141050

- q-position: [    0.4050000,    0.0000000,    0.4050000 ]
  distance:    0.1483182
  band:
  - # 1
    frequency:    3.9933148447
  - # 2
    frequency:    3.9933148447
  - # 3
    frequency:   10.4650417353
  - # 4
    frequency:   13.3995025616
  - # 5
    frequency:   13.6564944016
  - # 6
    frequency:   13.6564944016

- q-position: [    0.4100000,    0.0000000,    0.4100000 ]
  distance:    0.1501493
  band:
  - # 1
    frequency:    3.9794434857
  - # 2
    frequency:    3.9794434857
  - # 3
    frequency:   10.5569938932
  - # 4
    frequency:   13.3373259497
  - # 5
    frequency:   13.6538929041
  - # 6
    frequency:   13.6538929041

- q-position: [    0.4150000,    0.0000000,    0.4150000 ]
  distance:    0.1519804
  band:
  - # 1
    frequency:    3.9653369221
  - # 2
    frequency:    3.9653369221
  - # 3
    frequency:   10.6481269624
  - # 4
    frequency:   13.2743062610
  - # 5
    frequency:   13.6518467686
  - # 6
    frequency:   13.6518467686

- q-position: [    0.4200000,    0.0000000,    0.4200000 ]
  distance:    0.1538115
  band:
  - # 1
    frequency:    3.9511349836
  - # 2
    frequency:    3.9511349836
  - # 3
    frequency:   10.7384475841
  - # 4
    frequency:   13.2104448210
  - # 5
    frequency:   13.6502941085
  - # 6
    frequency:   13.6502941085

- q-position: [    0.4250000,    0.0000000,    0.4250000 ]
  distance:    0.1556425
  band:
  - # 1
    frequency:    3.9369757544
  - # 2
    frequency:    3.9369757544
  - # 3
    frequency:   10.8279618808
  - # 4
    frequency:   13.1457432180
  - # 5
    frequency:   13.6491744281
  - # 6
    frequency:   13.6491744281

- q-position: [    0.4300000,    0.0000000,    0.4300000 ]
  distance:    0.1574736
  band:
  - # 1
    frequency:    3.9229947251
  - # 2
    frequency:    3.9229947251
  - # 3
    frequency:   10.9166754202
  - # 4
    frequency:   13.0802033169
  - # 5
    frequency:   13.6484290276
  - # 6
    frequency:   13.6484290276

- q-position: [    0.4350000,    0.0000000,    0.4350000 ]
  distance:    0.1593047
  band:
  - # 1
    frequency:    3.9093239367
  - # 2
    frequency:    3.9093239367
  - # 3
    frequency:   11.0045931855
  - # 4
    frequency:   13.0138272637
  - # 5
    frequency:   13.6480013787
  - # 6
    frequency:   13.6480013787

- q-position: [    0.4400000,    0.0000000,    0.4400000 ]
  distance:    0.1611358
  band:
  - # 1
    frequency:    3.8960911223
  - # 2
    frequency:    3.8960911223
  - # 3
    frequency:   11.0917195509
  - # 4
    frequency:   12.9466174842
  - # 5
    frequency:   13.6478374699
  - # 6
    frequency:   13.6478374699
