phonopy:
  version: 1.11.12
  configuration:
    atom_name: "Si"
    dim: "4 4 4"
    band: "0.0 0.0 0.0  0.5 0.0 0.5,  0.5 0.5 1.0  0.375 0.375 0.75  0.0 0.0 0.0  0.5 0.5 0.5"
    band_labels: "\Gamma  X  K  \Gamma  L"
    band_points: "101"
    band_connection: ".FALSE."
    force_constants: "READ"

supercell_matrix:
- [   4,   0,   0 ]
- [   0,   4,   0 ]
- [   0,   0,   4 ]

primitive_cell:
  lattice:
  - [     0.000000000000000,     2.730615835179053,     2.730615835179053 ] # a
  - [     2.730615835179053,     0.000000000000000,     2.730615835179053 ] # b
  - [     2.730615835179053,     2.730615835179053,     0.000000000000000 ] # c
  points:
  - symbol: Si # 1
    coordinates: [  0.875000000000000,  0.875000000000000,  0.875000000000000 ]
    mass: 28.085500
  - symbol: Si # 2
    coordinates: [  0.125000000000000,  0.125000000000000,  0.125000000000000 ]
    mass: 28.085500
  reciprocal_lattice: # without 2pi
  - [    -0.183108877330309,     0.183108877330309,     0.183108877330309 ] # a*
  - [     0.183108877330309,    -0.183108877330309,     0.183108877330309 ] # b*
  - [     0.183108877330309,     0.183108877330309,    -0.183108877330309 ] # c*

unit_cell:
  lattice:
  - [     0.000000000000000,     2.730615835179053,     2.730615835179053 ] # a
  - [     2.730615835179053,     0.000000000000000,     2.730615835179053 ] # b
  - [     2.730615835179053,     2.730615835179053,     0.000000000000000 ] # c
  points:
  - symbol: Si # 1
    coordinates: [  0.875000000000000,  0.875000000000000,  0.875000000000000 ]
    mass: 28.085500
    reduced_to: 1
  - symbol: Si # 2
    coordinates: [  0.125000000000000,  0.125000000000000,  0.125000000000000 ]
    mass: 28.085500
    reduced_to: 2

supercell:
  lattice:
  - [     0.000000000000000,    10.922463340716211,    10.922463340716211 ] # a
  - [    10.922463340716211,     0.000000000000000,    10.922463340716211 ] # b
  - [    10.922463340716211,    10.922463340716211,     0.000000000000000 ] # c
  points:
  - symbol: Si # 1
    coordinates: [  0.218750000000000,  0.218750000000000,  0.218750000000000 ]
    mass: 28.085500
    reduced_to: 1
  - symbol: Si # 2
    coordinates: [  0.468750000000000,  0.218750000000000,  0.218750000000000 ]
    mass: 28.085500
    reduced_to: 1
  - symbol: Si # 3
    coordinates: [  0.718750000000000,  0.218750000000000,  0.218750000000000 ]
    mass: 28.085500
    reduced_to: 1
  - symbol: Si # 4
    coordinates: [  0.968750000000000,  0.218750000000000,  0.218750000000000 ]
    mass: 28.085500
    reduced_to: 1
  - symbol: Si # 5
    coordinates: [  0.218750000000000,  0.468750000000000,  0.218750000000000 ]
    mass: 28.085500
    reduced_to: 1
  - symbol: Si # 6
    coordinates: [  0.468750000000000,  0.468750000000000,  0.218750000000000 ]
    mass: 28.085500
    reduced_to: 1
  - symbol: Si # 7
    coordinates: [  0.718750000000000,  0.468750000000000,  0.218750000000000 ]
    mass: 28.085500
    reduced_to: 1
  - symbol: Si # 8
    coordinates: [  0.968750000000000,  0.468750000000000,  0.218750000000000 ]
    mass: 28.085500
    reduced_to: 1
  - symbol: Si # 9
    coordinates: [  0.218750000000000,  0.718750000000000,  0.218750000000000 ]
    mass: 28.085500
    reduced_to: 1
  - symbol: Si # 10
    coordinates: [  0.468750000000000,  0.718750000000000,  0.218750000000000 ]
    mass: 28.085500
    reduced_to: 1
  - symbol: Si # 11
    coordinates: [  0.718750000000000,  0.718750000000000,  0.218750000000000 ]
    mass: 28.085500
    reduced_to: 1
  - symbol: Si # 12
    coordinates: [  0.968750000000000,  0.718750000000000,  0.218750000000000 ]
    mass: 28.085500
    reduced_to: 1
  - symbol: Si # 13
    coordinates: [  0.218750000000000,  0.968750000000000,  0.218750000000000 ]
    mass: 28.085500
    reduced_to: 1
  - symbol: Si # 14
    coordinates: [  0.468750000000000,  0.968750000000000,  0.218750000000000 ]
    mass: 28.085500
    reduced_to: 1
  - symbol: Si # 15
    coordinates: [  0.718750000000000,  0.968750000000000,  0.218750000000000 ]
    mass: 28.085500
    reduced_to: 1
  - symbol: Si # 16
    coordinates: [  0.968750000000000,  0.968750000000000,  0.218750000000000 ]
    mass: 28.085500
    reduced_to: 1
  - symbol: Si # 17
    coordinates: [  0.218750000000000,  0.218750000000000,  0.468750000000000 ]
    mass: 28.085500
    reduced_to: 1
  - symbol: Si # 18
    coordinates: [  0.468750000000000,  0.218750000000000,  0.468750000000000 ]
    mass: 28.085500
    reduced_to: 1
  - symbol: Si # 19
    coordinates: [  0.718750000000000,  0.218750000000000,  0.468750000000000 ]
    mass: 28.085500
    reduced_to: 1
  - symbol: Si # 20
    coordinates: [  0.968750000000000,  0.218750000000000,  0.468750000000000 ]
    mass: 28.085500
    reduced_to: 1
  - symbol: Si # 21
    coordinates: [  0.218750000000000,  0.468750000000000,  0.468750000000000 ]
    mass: 28.085500
    reduced_to: 1
  - symbol: Si # 22
    coordinates: [  0.468750000000000,  0.468750000000000,  0.468750000000000 ]
    mass: 28.085500
    reduced_to: 1
  - symbol: Si # 23
    coordinates: [  0.718750000000000,  0.468750000000000,  0.468750000000000 ]
    mass: 28.085500
    reduced_to: 1
  - symbol: Si # 24
    coordinates: [  0.968750000000000,  0.468750000000000,  0.468750000000000 ]
    mass: 28.085500
    reduced_to: 1
  - symbol: Si # 25
    coordinates: [  0.218750000000000,  0.718750000000000,  0.468750000000000 ]
    mass: 28.085500
    reduced_to: 1
  - symbol: Si # 26
    coordinates: [  0.468750000000000,  0.718750000000000,  0.468750000000000 ]
    mass: 28.085500
    reduced_to: 1
  - symbol: Si # 27
    coordinates: [  0.718750000000000,  0.718750000000000,  0.468750000000000 ]
    mass: 28.085500
    reduced_to: 1
  - symbol: Si # 28
    coordinates: [  0.968750000000000,  0.718750000000000,  0.468750000000000 ]
    mass: 28.085500
    reduced_to: 1
  - symbol: Si # 29
    coordinates: [  0.218750000000000,  0.968750000000000,  0.468750000000000 ]
    mass: 28.085500
    reduced_to: 1
  - symbol: Si # 30
    coordinates: [  0.468750000000000,  0.968750000000000,  0.468750000000000 ]
    mass: 28.085500
    reduced_to: 1
  - symbol: Si # 31
    coordinates: [  0.718750000000000,  0.968750000000000,  0.468750000000000 ]
    mass: 28.085500
    reduced_to: 1
  - symbol: Si # 32
    coordinates: [  0.968750000000000,  0.968750000000000,  0.468750000000000 ]
    mass: 28.085500
    reduced_to: 1
  - symbol: Si # 33
    coordinates: [  0.218750000000000,  0.218750000000000,  0.718750000000000 ]
    mass: 28.085500
    reduced_to: 1
  - symbol: Si # 34
    coordinates: [  0.468750000000000,  0.218750000000000,  0.718750000000000 ]
    mass: 28.085500
    reduced_to: 1
  - symbol: Si # 35
    coordinates: [  0.718750000000000,  0.218750000000000,  0.718750000000000 ]
    mass: 28.085500
    reduced_to: 1
  - symbol: Si # 36
    coordinates: [  0.968750000000000,  0.218750000000000,  0.718750000000000 ]
    mass: 28.085500
    reduced_to: 1
  - symbol: Si # 37
    coordinates: [  0.218750000000000,  0.468750000000000,  0.718750000000000 ]
    mass: 28.085500
    reduced_to: 1
  - symbol: Si # 38
    coordinates: [  0.468750000000000,  0.468750000000000,  0.718750000000000 ]
    mass: 28.085500
    reduced_to: 1
  - symbol: Si # 39
    coordinates: [  0.718750000000000,  0.468750000000000,  0.718750000000000 ]
    mass: 28.085500
    reduced_to: 1
  - symbol: Si # 40
    coordinates: [  0.968750000000000,  0.468750000000000,  0.718750000000000 ]
    mass: 28.085500
    reduced_to: 1
  - symbol: Si # 41
    coordinates: [  0.218750000000000,  0.718750000000000,  0.718750000000000 ]
    mass: 28.085500
    reduced_to: 1
  - symbol: Si # 42
    coordinates: [  0.468750000000000,  0.718750000000000,  0.718750000000000 ]
    mass: 28.085500
    reduced_to: 1
  - symbol: Si # 43
    coordinates: [  0.718750000000000,  0.718750000000000,  0.718750000000000 ]
    mass: 28.085500
    reduced_to: 1
  - symbol: Si # 44
    coordinates: [  0.968750000000000,  0.718750000000000,  0.718750000000000 ]
    mass: 28.085500
    reduced_to: 1
  - symbol: Si # 45
    coordinates: [  0.218750000000000,  0.968750000000000,  0.718750000000000 ]
    mass: 28.085500
    reduced_to: 1
  - symbol: Si # 46
    coordinates: [  0.468750000000000,  0.968750000000000,  0.718750000000000 ]
    mass: 28.085500
    reduced_to: 1
  - symbol: Si # 47
    coordinates: [  0.718750000000000,  0.968750000000000,  0.718750000000000 ]
    mass: 28.085500
    reduced_to: 1
  - symbol: Si # 48
    coordinates: [  0.968750000000000,  0.968750000000000,  0.718750000000000 ]
    mass: 28.085500
    reduced_to: 1
  - symbol: Si # 49
    coordinates: [  0.218750000000000,  0.218750000000000,  0.968750000000000 ]
    mass: 28.085500
    reduced_to: 1
  - symbol: Si # 50
    coordinates: [  0.468750000000000,  0.218750000000000,  0.968750000000000 ]
    mass: 28.085500
    reduced_to: 1
  - symbol: Si # 51
    coordinates: [  0.718750000000000,  0.218750000000000,  0.968750000000000 ]
    mass: 28.085500
    reduced_to: 1
  - symbol: Si # 52
    coordinates: [  0.968750000000000,  0.218750000000000,  0.968750000000000 ]
    mass: 28.085500
    reduced_to: 1
  - symbol: Si # 53
    coordinates: [  0.218750000000000,  0.468750000000000,  0.968750000000000 ]
    mass: 28.085500
    reduced_to: 1
  - symbol: Si # 54
    coordinates: [  0.468750000000000,  0.468750000000000,  0.968750000000000 ]
    mass: 28.085500
    reduced_to: 1
  - symbol: Si # 55
    coordinates: [  0.718750000000000,  0.468750000000000,  0.968750000000000 ]
    mass: 28.085500
    reduced_to: 1
  - symbol: Si # 56
    coordinates: [  0.968750000000000,  0.468750000000000,  0.968750000000000 ]
    mass: 28.085500
    reduced_to: 1
  - symbol: Si # 57
    coordinates: [  0.218750000000000,  0.718750000000000,  0.968750000000000 ]
    mass: 28.085500
    reduced_to: 1
  - symbol: Si # 58
    coordinates: [  0.468750000000000,  0.718750000000000,  0.968750000000000 ]
    mass: 28.085500
    reduced_to: 1
  - symbol: Si # 59
    coordinates: [  0.718750000000000,  0.718750000000000,  0.968750000000000 ]
    mass: 28.085500
    reduced_to: 1
  - symbol: Si # 60
    coordinates: [  0.968750000000000,  0.718750000000000,  0.968750000000000 ]
    mass: 28.085500
    reduced_to: 1
  - symbol: Si # 61
    coordinates: [  0.218750000000000,  0.968750000000000,  0.968750000000000 ]
    mass: 28.085500
    reduced_to: 1
  - symbol: Si # 62
    coordinates: [  0.468750000000000,  0.968750000000000,  0.968750000000000 ]
    mass: 28.085500
    reduced_to: 1
  - symbol: Si # 63
    coordinates: [  0.718750000000000,  0.968750000000000,  0.968750000000000 ]
    mass: 28.085500
    reduced_to: 1
  - symbol: Si # 64
    coordinates: [  0.968750000000000,  0.968750000000000,  0.968750000000000 ]
    mass: 28.085500
    reduced_to: 1
  - symbol: Si # 65
    coordinates: [  0.031250000000000,  0.031250000000000,  0.031250000000000 ]
    mass: 28.085500
    reduced_to: 65
  - symbol: Si # 66
    coordinates: [  0.281250000000000,  0.031250000000000,  0.031250000000000 ]
    mass: 28.085500
    reduced_to: 65
  - symbol: Si # 67
    coordinates: [  0.531250000000000,  0.031250000000000,  0.031250000000000 ]
    mass: 28.085500
    reduced_to: 65
  - symbol: Si # 68
    coordinates: [  0.781250000000000,  0.031250000000000,  0.031250000000000 ]
    mass: 28.085500
    reduced_to: 65
  - symbol: Si # 69
    coordinates: [  0.031250000000000,  0.281250000000000,  0.031250000000000 ]
    mass: 28.085500
    reduced_to: 65
  - symbol: Si # 70
    coordinates: [  0.281250000000000,  0.281250000000000,  0.031250000000000 ]
    mass: 28.085500
    reduced_to: 65
  - symbol: Si # 71
    coordinates: [  0.531250000000000,  0.281250000000000,  0.031250000000000 ]
    mass: 28.085500
    reduced_to: 65
  - symbol: Si # 72
    coordinates: [  0.781250000000000,  0.281250000000000,  0.031250000000000 ]
    mass: 28.085500
    reduced_to: 65
  - symbol: Si # 73
    coordinates: [  0.031250000000000,  0.531250000000000,  0.031250000000000 ]
    mass: 28.085500
    reduced_to: 65
  - symbol: Si # 74
    coordinates: [  0.281250000000000,  0.531250000000000,  0.031250000000000 ]
    mass: 28.085500
    reduced_to: 65
  - symbol: Si # 75
    coordinates: [  0.531250000000000,  0.531250000000000,  0.031250000000000 ]
    mass: 28.085500
    reduced_to: 65
  - symbol: Si # 76
    coordinates: [  0.781250000000000,  0.531250000000000,  0.031250000000000 ]
    mass: 28.085500
    reduced_to: 65
  - symbol: Si # 77
    coordinates: [  0.031250000000000,  0.781250000000000,  0.031250000000000 ]
    mass: 28.085500
    reduced_to: 65
  - symbol: Si # 78
    coordinates: [  0.281250000000000,  0.781250000000000,  0.031250000000000 ]
    mass: 28.085500
    reduced_to: 65
  - symbol: Si # 79
    coordinates: [  0.531250000000000,  0.781250000000000,  0.031250000000000 ]
    mass: 28.085500
    reduced_to: 65
  - symbol: Si # 80
    coordinates: [  0.781250000000000,  0.781250000000000,  0.031250000000000 ]
    mass: 28.085500
    reduced_to: 65
  - symbol: Si # 81
    coordinates: [  0.031250000000000,  0.031250000000000,  0.281250000000000 ]
    mass: 28.085500
    reduced_to: 65
  - symbol: Si # 82
    coordinates: [  0.281250000000000,  0.031250000000000,  0.281250000000000 ]
    mass: 28.085500
    reduced_to: 65
  - symbol: Si # 83
    coordinates: [  0.531250000000000,  0.031250000000000,  0.281250000000000 ]
    mass: 28.085500
    reduced_to: 65
  - symbol: Si # 84
    coordinates: [  0.781250000000000,  0.031250000000000,  0.281250000000000 ]
    mass: 28.085500
    reduced_to: 65
  - symbol: Si # 85
    coordinates: [  0.031250000000000,  0.281250000000000,  0.281250000000000 ]
    mass: 28.085500
    reduced_to: 65
  - symbol: Si # 86
    coordinates: [  0.281250000000000,  0.281250000000000,  0.281250000000000 ]
    mass: 28.085500
    reduced_to: 65
  - symbol: Si # 87
    coordinates: [  0.531250000000000,  0.281250000000000,  0.281250000000000 ]
    mass: 28.085500
    reduced_to: 65
  - symbol: Si # 88
    coordinates: [  0.781250000000000,  0.281250000000000,  0.281250000000000 ]
    mass: 28.085500
    reduced_to: 65
  - symbol: Si # 89
    coordinates: [  0.031250000000000,  0.531250000000000,  0.281250000000000 ]
    mass: 28.085500
    reduced_to: 65
  - symbol: Si # 90
    coordinates: [  0.281250000000000,  0.531250000000000,  0.281250000000000 ]
    mass: 28.085500
    reduced_to: 65
  - symbol: Si # 91
    coordinates: [  0.531250000000000,  0.531250000000000,  0.281250000000000 ]
    mass: 28.085500
    reduced_to: 65
  - symbol: Si # 92
    coordinates: [  0.781250000000000,  0.531250000000000,  0.281250000000000 ]
    mass: 28.085500
    reduced_to: 65
  - symbol: Si # 93
    coordinates: [  0.031250000000000,  0.781250000000000,  0.281250000000000 ]
    mass: 28.085500
    reduced_to: 65
  - symbol: Si # 94
    coordinates: [  0.281250000000000,  0.781250000000000,  0.281250000000000 ]
    mass: 28.085500
    reduced_to: 65
  - symbol: Si # 95
    coordinates: [  0.531250000000000,  0.781250000000000,  0.281250000000000 ]
    mass: 28.085500
    reduced_to: 65
  - symbol: Si # 96
    coordinates: [  0.781250000000000,  0.781250000000000,  0.281250000000000 ]
    mass: 28.085500
    reduced_to: 65
  - symbol: Si # 97
    coordinates: [  0.031250000000000,  0.031250000000000,  0.531250000000000 ]
    mass: 28.085500
    reduced_to: 65
  - symbol: Si # 98
    coordinates: [  0.281250000000000,  0.031250000000000,  0.531250000000000 ]
    mass: 28.085500
    reduced_to: 65
  - symbol: Si # 99
    coordinates: [  0.531250000000000,  0.031250000000000,  0.531250000000000 ]
    mass: 28.085500
    reduced_to: 65
  - symbol: Si # 100
    coordinates: [  0.781250000000000,  0.031250000000000,  0.531250000000000 ]
    mass: 28.085500
    reduced_to: 65
  - symbol: Si # 101
    coordinates: [  0.031250000000000,  0.281250000000000,  0.531250000000000 ]
    mass: 28.085500
    reduced_to: 65
  - symbol: Si # 102
    coordinates: [  0.281250000000000,  0.281250000000000,  0.531250000000000 ]
    mass: 28.085500
    reduced_to: 65
  - symbol: Si # 103
    coordinates: [  0.531250000000000,  0.281250000000000,  0.531250000000000 ]
    mass: 28.085500
    reduced_to: 65
  - symbol: Si # 104
    coordinates: [  0.781250000000000,  0.281250000000000,  0.531250000000000 ]
    mass: 28.085500
    reduced_to: 65
  - symbol: Si # 105
    coordinates: [  0.031250000000000,  0.531250000000000,  0.531250000000000 ]
    mass: 28.085500
    reduced_to: 65
  - symbol: Si # 106
    coordinates: [  0.281250000000000,  0.531250000000000,  0.531250000000000 ]
    mass: 28.085500
    reduced_to: 65
  - symbol: Si # 107
    coordinates: [  0.531250000000000,  0.531250000000000,  0.531250000000000 ]
    mass: 28.085500
    reduced_to: 65
  - symbol: Si # 108
    coordinates: [  0.781250000000000,  0.531250000000000,  0.531250000000000 ]
    mass: 28.085500
    reduced_to: 65
  - symbol: Si # 109
    coordinates: [  0.031250000000000,  0.781250000000000,  0.531250000000000 ]
    mass: 28.085500
    reduced_to: 65
  - symbol: Si # 110
    coordinates: [  0.281250000000000,  0.781250000000000,  0.531250000000000 ]
    mass: 28.085500
    reduced_to: 65
  - symbol: Si # 111
    coordinates: [  0.531250000000000,  0.781250000000000,  0.531250000000000 ]
    mass: 28.085500
    reduced_to: 65
  - symbol: Si # 112
    coordinates: [  0.781250000000000,  0.781250000000000,  0.531250000000000 ]
    mass: 28.085500
    reduced_to: 65
  - symbol: Si # 113
    coordinates: [  0.031250000000000,  0.031250000000000,  0.781250000000000 ]
    mass: 28.085500
    reduced_to: 65
  - symbol: Si # 114
    coordinates: [  0.281250000000000,  0.031250000000000,  0.781250000000000 ]
    mass: 28.085500
    reduced_to: 65
  - symbol: Si # 115
    coordinates: [  0.531250000000000,  0.031250000000000,  0.781250000000000 ]
    mass: 28.085500
    reduced_to: 65
  - symbol: Si # 116
    coordinates: [  0.781250000000000,  0.031250000000000,  0.781250000000000 ]
    mass: 28.085500
    reduced_to: 65
  - symbol: Si # 117
    coordinates: [  0.031250000000000,  0.281250000000000,  0.781250000000000 ]
    mass: 28.085500
    reduced_to: 65
  - symbol: Si # 118
    coordinates: [  0.281250000000000,  0.281250000000000,  0.781250000000000 ]
    mass: 28.085500
    reduced_to: 65
  - symbol: Si # 119
    coordinates: [  0.531250000000000,  0.281250000000000,  0.781250000000000 ]
    mass: 28.085500
    reduced_to: 65
  - symbol: Si # 120
    coordinates: [  0.781250000000000,  0.281250000000000,  0.781250000000000 ]
    mass: 28.085500
    reduced_to: 65
  - symbol: Si # 121
    coordinates: [  0.031250000000000,  0.531250000000000,  0.781250000000000 ]
    mass: 28.085500
    reduced_to: 65
  - symbol: Si # 122
    coordinates: [  0.281250000000000,  0.531250000000000,  0.781250000000000 ]
    mass: 28.085500
    reduced_to: 65
  - symbol: Si # 123
    coordinates: [  0.531250000000000,  0.531250000000000,  0.781250000000000 ]
    mass: 28.085500
    reduced_to: 65
  - symbol: Si # 124
    coordinates: [  0.781250000000000,  0.531250000000000,  0.781250000000000 ]
    mass: 28.085500
    reduced_to: 65
  - symbol: Si # 125
    coordinates: [  0.031250000000000,  0.781250000000000,  0.781250000000000 ]
    mass: 28.085500
    reduced_to: 65
  - symbol: Si # 126
    coordinates: [  0.281250000000000,  0.781250000000000,  0.781250000000000 ]
    mass: 28.085500
    reduced_to: 65
  - symbol: Si # 127
    coordinates: [  0.531250000000000,  0.781250000000000,  0.781250000000000 ]
    mass: 28.085500
    reduced_to: 65
  - symbol: Si # 128
    coordinates: [  0.781250000000000,  0.781250000000000,  0.781250000000000 ]
    mass: 28.085500
    reduced_to: 65
