 128
   1   1
    13.399310694372092     0.000000000000000     0.000000000000000
     0.000000000000000    13.399310694372096     0.000000000000000
     0.000000000000000     0.000000000000000    13.399310694372085
   1   2
     0.494205116128033     0.093988374877847     0.093988374877847
    -0.093988374877847    -0.154157157539416    -0.203838440147883
    -0.093988374877847    -0.203838440147883    -0.154157157539415
   1   3
     0.161562246365844     0.000000000000000     0.000000000000000
     0.000000000000000    -0.021213760148726    -0.036835773639214
     0.000000000000000    -0.036835773639214    -0.021213760148726
   1   4
     0.494205116128033    -0.093988374877847    -0.093988374877847
     0.093988374877847    -0.154157157539415    -0.203838440147883
     0.093988374877847    -0.203838440147883    -0.154157157539416
   1   5
    -0.154157157539416    -0.093988374877847    -0.203838440147883
     0.093988374877847     0.494205116128033     0.093988374877847
    -0.203838440147883    -0.093988374877847    -0.154157157539415
   1   6
    -0.008679527703939     0.026366896975246    -0.020527188526313
     0.026366896975246    -0.008679527703939    -0.020527188526313
    -0.014499405001887    -0.014499405001887    -0.004369720016814
   1   7
    -0.008679527703939     0.020527188526313    -0.026366896975246
     0.014499405001887    -0.004369720016814    -0.014499405001887
    -0.026366896975246    -0.020527188526313    -0.008679527703939
   1   8
    -0.154157157539416     0.203838440147883     0.093988374877847
     0.203838440147883    -0.154157157539415    -0.093988374877847
    -0.093988374877847     0.093988374877847     0.494205116128033
   1   9
    -0.021213760148726     0.000000000000000    -0.036835773639214
     0.000000000000000     0.161562246365844     0.000000000000000
    -0.036835773639214     0.000000000000000    -0.021213760148726
   1  10
    -0.004369720016814     0.014499405001887    -0.014499405001887
     0.020527188526313    -0.008679527703939    -0.026366896975246
    -0.020527188526313    -0.026366896975246    -0.008679527703939
   1  11
    -0.021213760148726     0.036835773639214     0.000000000000000
     0.036835773639214    -0.021213760148726     0.000000000000000
     0.000000000000000     0.000000000000000     0.161562246365844
   1  12
    -0.004369720016814     0.020527188526313    -0.020527188526313
     0.014499405001887    -0.008679527703939    -0.026366896975246
    -0.014499405001887    -0.026366896975246    -0.008679527703939
   1  13
    -0.154157157539415     0.093988374877847    -0.203838440147883
    -0.093988374877847     0.494205116128033    -0.093988374877847
    -0.203838440147883     0.093988374877847    -0.154157157539416
   1  14
    -0.154157157539415     0.203838440147883    -0.093988374877847
     0.203838440147883    -0.154157157539416     0.093988374877847
     0.093988374877847    -0.093988374877847     0.494205116128033
   1  15
    -0.008679527703939     0.014499405001887    -0.026366896975246
     0.020527188526313    -0.004369720016814    -0.020527188526313
    -0.026366896975246    -0.014499405001887    -0.008679527703939
   1  16
    -0.008679527703939     0.026366896975246    -0.014499405001887
     0.026366896975246    -0.008679527703939    -0.014499405001887
    -0.020527188526313    -0.020527188526313    -0.004369720016814
   1  17
    -0.154157157539416    -0.203838440147883    -0.093988374877847
    -0.203838440147883    -0.154157157539415    -0.093988374877847
     0.093988374877847     0.093988374877847     0.494205116128033
   1  18
    -0.008679527703939    -0.020527188526313     0.026366896975246
    -0.014499405001887    -0.004369720016814    -0.014499405001887
     0.026366896975246    -0.020527188526313    -0.008679527703939
   1  19
    -0.008679527703939    -0.026366896975246     0.020527188526313
    -0.026366896975247    -0.008679527703939    -0.020527188526313
     0.014499405001887    -0.014499405001887    -0.004369720016814
   1  20
    -0.154157157539416     0.093988374877847     0.203838440147883
    -0.093988374877847     0.494205116128033     0.093988374877847
     0.203838440147883    -0.093988374877847    -0.154157157539415
   1  21
    -0.004369720016814    -0.014499405001887    -0.014499405001887
    -0.020527188526313    -0.008679527703939     0.026366896975246
    -0.020527188526313     0.026366896975246    -0.008679527703939
   1  22
    -0.014265967981904     0.000000000000000     0.000000000000000
     0.000000000000000    -0.014265967981904     0.000000000000000
     0.000000000000000     0.000000000000000    -0.014265967981904
   1  23
    -0.004369720016814     0.014499405001887     0.014499405001887
     0.020527188526313    -0.008679527703939     0.026366896975247
     0.020527188526313     0.026366896975246    -0.008679527703939
   1  24
    -0.021823459091872     0.000000000000000     0.000000000000000
     0.000000000000000    -0.028783072445502     0.000000000000000
     0.000000000000000     0.000000000000000    -0.028783072445502
   1  25
    -0.008679527703939    -0.026366896975246    -0.020527188526313
    -0.026366896975246    -0.008679527703939     0.020527188526313
    -0.014499405001887     0.014499405001887    -0.004369720016814
   1  26
    -0.008679527703939     0.020527188526313     0.026366896975246
     0.014499405001887    -0.004369720016814     0.014499405001887
     0.026366896975246     0.020527188526313    -0.008679527703939
   1  27
    -0.007962613042383     0.000021346024822    -0.001401972442268
     0.000021346024822    -0.007962613042383    -0.001401972442268
     0.001401972442268     0.001401972442268    -0.012748949660616
   1  28
    -0.007962613042383     0.001401972442268    -0.000021346024822
    -0.001401972442268    -0.012748949660616     0.001401972442268
    -0.000021346024822    -0.001401972442268    -0.007962613042383
   1  29
     0.494205116128033    -0.093988374877847     0.093988374877847
     0.093988374877847    -0.154157157539416     0.203838440147883
    -0.093988374877847     0.203838440147883    -0.154157157539415
   1  30
    -0.028783072445502     0.000000000000000     0.000000000000000
     0.000000000000000    -0.021823459091872     0.000000000000000
     0.000000000000000     0.000000000000000    -0.028783072445502
   1  31
    -0.012748949660616    -0.001401972442268     0.001401972442268
     0.001401972442268    -0.007962613042383    -0.000021346024822
    -0.001401972442268    -0.000021346024822    -0.007962613042383
   1  32
    -0.028783072445502     0.000000000000000     0.000000000000000
     0.000000000000000    -0.028783072445502     0.000000000000000
     0.000000000000000     0.000000000000000    -0.021823459091872
   1  33
    -0.021213760148726    -0.036835773639214     0.000000000000000
    -0.036835773639214    -0.021213760148726     0.000000000000000
     0.000000000000000     0.000000000000000     0.161562246365844
   1  34
    -0.004369720016814    -0.014499405001887     0.014499405001887
    -0.020527188526313    -0.008679527703939    -0.026366896975246
     0.020527188526313    -0.026366896975247    -0.008679527703939
   1  35
    -0.021213760148726     0.000000000000000     0.036835773639214
     0.000000000000000     0.161562246365844     0.000000000000000
     0.036835773639214     0.000000000000000    -0.021213760148726
   1  36
    -0.004369720016814    -0.020527188526313     0.020527188526313
    -0.014499405001887    -0.008679527703939    -0.026366896975247
     0.014499405001887    -0.026366896975246    -0.008679527703939
   1  37
    -0.008679527703939    -0.020527188526313    -0.026366896975246
    -0.014499405001887    -0.004369720016814     0.014499405001887
    -0.026366896975246     0.020527188526313    -0.008679527703939
   1  38
    -0.008679527703939     0.026366896975246     0.020527188526313
     0.026366896975247    -0.008679527703939     0.020527188526313
     0.014499405001887     0.014499405001887    -0.004369720016814
   1  39
    -0.007962613042383    -0.001401972442268     0.000021346024822
     0.001401972442268    -0.012748949660616     0.001401972442268
     0.000021346024822    -0.001401972442268    -0.007962613042383
   1  40
    -0.007962613042383    -0.000021346024822     0.001401972442268
    -0.000021346024822    -0.007962613042383    -0.001401972442268
    -0.001401972442268     0.001401972442268    -0.012748949660616
   1  41
     0.161562246365844     0.000000000000000     0.000000000000000
     0.000000000000000    -0.021213760148726     0.036835773639214
     0.000000000000000     0.036835773639214    -0.021213760148726
   1  42
    -0.012748949660616     0.001401972442268     0.001401972442268
    -0.001401972442268    -0.007962613042383     0.000021346024822
    -0.001401972442268     0.000021346024822    -0.007962613042383
   1  43
    -0.018111881430899     0.000000000000000     0.000000000000000
     0.000000000000000    -0.018111881430899     0.000000000000000
     0.000000000000000     0.000000000000000    -0.018111881430899
   1  44
    -0.012748949660616    -0.001401972442268    -0.001401972442268
     0.001401972442268    -0.007962613042383     0.000021346024822
     0.001401972442268     0.000021346024822    -0.007962613042383
   1  45
    -0.008679527703939    -0.014499405001887    -0.026366896975246
    -0.020527188526313    -0.004369720016814     0.020527188526313
    -0.026366896975246     0.014499405001887    -0.008679527703939
   1  46
    -0.007962613042383    -0.000021346024822    -0.001401972442268
    -0.000021346024822    -0.007962613042383     0.001401972442268
     0.001401972442268    -0.001401972442268    -0.012748949660616
   1  47
    -0.007962613042383     0.001401972442268     0.000021346024822
    -0.001401972442268    -0.012748949660616    -0.001401972442268
     0.000021346024822     0.001401972442268    -0.007962613042383
   1  48
    -0.008679527703939     0.026366896975247     0.014499405001887
     0.026366896975246    -0.008679527703939     0.014499405001887
     0.020527188526313     0.020527188526313    -0.004369720016814
   1  49
    -0.154157157539416    -0.203838440147883     0.093988374877847
    -0.203838440147883    -0.154157157539415     0.093988374877847
    -0.093988374877847    -0.093988374877847     0.494205116128033
   1  50
    -0.154157157539415    -0.093988374877847     0.203838440147883
     0.093988374877847     0.494205116128033    -0.093988374877847
     0.203838440147883     0.093988374877847    -0.154157157539416
   1  51
    -0.008679527703939    -0.026366896975246     0.014499405001887
    -0.026366896975247    -0.008679527703939    -0.014499405001887
     0.020527188526313    -0.020527188526313    -0.004369720016814
   1  52
    -0.008679527703939    -0.014499405001887     0.026366896975246
    -0.020527188526313    -0.004369720016814    -0.020527188526313
     0.026366896975246    -0.014499405001887    -0.008679527703939
   1  53
     0.494205116128033     0.093988374877847    -0.093988374877847
    -0.093988374877847    -0.154157157539416     0.203838440147883
     0.093988374877847     0.203838440147883    -0.154157157539415
   1  54
    -0.028783072445502     0.000000000000000     0.000000000000000
     0.000000000000000    -0.028783072445502     0.000000000000000
     0.000000000000000     0.000000000000000    -0.021823459091872
   1  55
    -0.012748949660616     0.001401972442268    -0.001401972442268
    -0.001401972442268    -0.007962613042383    -0.000021346024822
     0.001401972442268    -0.000021346024822    -0.007962613042383
   1  56
    -0.028783072445502     0.000000000000000     0.000000000000000
     0.000000000000000    -0.021823459091872     0.000000000000000
     0.000000000000000     0.000000000000000    -0.028783072445502
   1  57
    -0.008679527703939    -0.026366896975246    -0.014499405001887
    -0.026366896975246    -0.008679527703939     0.014499405001887
    -0.020527188526313     0.020527188526313    -0.004369720016814
   1  58
    -0.007962613042383    -0.001401972442268    -0.000021346024822
     0.001401972442268    -0.012748949660616    -0.001401972442268
    -0.000021346024822     0.001401972442268    -0.007962613042383
   1  59
    -0.007962613042383     0.000021346024822     0.001401972442268
     0.000021346024822    -0.007962613042383     0.001401972442268
    -0.001401972442268    -0.001401972442268    -0.012748949660616
   1  60
    -0.008679527703939     0.014499405001887     0.026366896975246
     0.020527188526313    -0.004369720016814     0.020527188526313
     0.026366896975246     0.014499405001887    -0.008679527703939
   1  61
    -0.004369720016814    -0.020527188526313    -0.020527188526313
    -0.014499405001887    -0.008679527703939     0.026366896975246
    -0.014499405001887     0.026366896975246    -0.008679527703939
   1  62
    -0.021823459091872     0.000000000000000     0.000000000000000
     0.000000000000000    -0.028783072445502     0.000000000000000
     0.000000000000000     0.000000000000000    -0.028783072445502
   1  63
    -0.004369720016814     0.020527188526313     0.020527188526313
     0.014499405001887    -0.008679527703939     0.026366896975247
     0.014499405001887     0.026366896975246    -0.008679527703939
   1  64
    -0.014265967981904     0.000000000000000     0.000000000000000
     0.000000000000000    -0.014265967981904     0.000000000000000
     0.000000000000000     0.000000000000000    -0.014265967981904
   1  65
     0.010513050520650    -0.002855947735045    -0.002855947735045
    -0.002855947735045     0.010513050520650    -0.002855947735045
    -0.002855947735045    -0.002855947735045     0.010513050520650
   1  66
     0.010537982604288     0.039299311213359     0.039299311213359
     0.039299311213358     0.026904040029136    -0.032707921674555
     0.039299311213358    -0.032707921674555     0.026904040029136
   1  67
     0.010537982604288    -0.039299311213359    -0.039299311213359
    -0.039299311213358     0.026904040029136    -0.032707921674555
    -0.039299311213358    -0.032707921674555     0.026904040029136
   1  68
     0.010513050520650     0.002855947735045     0.002855947735045
     0.002855947735045     0.010513050520650    -0.002855947735045
     0.002855947735045    -0.002855947735045     0.010513050520650
   1  69
     0.026904040029136     0.039299311213358    -0.032707921674555
     0.039299311213359     0.010537982604288     0.039299311213359
    -0.032707921674555     0.039299311213358     0.026904040029136
   1  70
    -3.373397558749089    -2.190426256059035     2.190426256059034
    -2.190426256059034    -3.373397558749090     2.190426256059034
     2.190426256059033     2.190426256059034    -3.373397558749089
   1  71
     0.026904040029136     0.032707921674555    -0.039299311213358
     0.032707921674555     0.026904040029136     0.039299311213358
    -0.039299311213359     0.039299311213359     0.010537982604288
   1  72
     0.009054824507130     0.014477328745062    -0.014477328745062
     0.014477328745062    -0.005890345792732     0.007665249306240
    -0.014477328745062     0.007665249306240    -0.005890345792732
   1  73
     0.026904040029136    -0.039299311213358    -0.032707921674555
    -0.039299311213359     0.010537982604288    -0.039299311213359
    -0.032707921674555    -0.039299311213358     0.026904040029136
   1  74
     0.026904040029136     0.032707921674555     0.039299311213358
     0.032707921674555     0.026904040029136    -0.039299311213358
     0.039299311213359    -0.039299311213359     0.010537982604288
   1  75
     0.015290931170486    -0.002410983216088    -0.003277543227502
    -0.002410983216088     0.015290931170486    -0.003277543227502
    -0.003277543227498    -0.003277543227498     0.006303052809154
   1  76
     0.015290931170486     0.003277543227502     0.002410983216088
     0.003277543227498     0.006303052809154    -0.003277543227498
     0.002410983216088    -0.003277543227502     0.015290931170486
   1  77
     0.010513050520650     0.002855947735045    -0.002855947735045
     0.002855947735045     0.010513050520650     0.002855947735045
    -0.002855947735045     0.002855947735045     0.010513050520650
   1  78
    -0.005890345792732     0.014477328745062     0.007665249306240
     0.014477328745062     0.009054824507130    -0.014477328745062
     0.007665249306240    -0.014477328745062    -0.005890345792732
   1  79
     0.006303052809154     0.003277543227498    -0.003277543227498
     0.003277543227502     0.015290931170486     0.002410983216088
    -0.003277543227502     0.002410983216088     0.015290931170486
   1  80
    -0.005890345792732    -0.007665249306240    -0.014477328745062
    -0.007665249306240    -0.005890345792732    -0.014477328745062
    -0.014477328745062    -0.014477328745061     0.009054824507130
   1  81
     0.026904040029136    -0.032707921674555     0.039299311213359
    -0.032707921674555     0.026904040029136     0.039299311213359
     0.039299311213358     0.039299311213358     0.010537982604288
   1  82
    -3.373397558749089     2.190426256059034    -2.190426256059034
     2.190426256059034    -3.373397558749089     2.190426256059034
    -2.190426256059033     2.190426256059033    -3.373397558749089
   1  83
     0.026904040029136    -0.039299311213359     0.032707921674555
    -0.039299311213358     0.010537982604288     0.039299311213358
     0.032707921674555     0.039299311213359     0.026904040029136
   1  84
     0.009054824507130    -0.014477328745061     0.014477328745062
    -0.014477328745062    -0.005890345792732     0.007665249306240
     0.014477328745062     0.007665249306240    -0.005890345792732
   1  85
    -3.373397558749090     2.190426256059034     2.190426256059034
     2.190426256059033    -3.373397558749087    -2.190426256059032
     2.190426256059035    -2.190426256059034    -3.373397558749089
   1  86
    -3.373397558749089    -2.190426256059034    -2.190426256059034
    -2.190426256059034    -3.373397558749089    -2.190426256059034
    -2.190426256059033    -2.190426256059033    -3.373397558749089
   1  87
    -0.201316533616360     0.051470040466919     0.051470040466919
     0.051470040466919    -0.022692919728527    -0.027703034675026
     0.051470040466919    -0.027703034675026    -0.022692919728526
   1  88
    -0.201316533616360    -0.051470040466919    -0.051470040466919
    -0.051470040466919    -0.022692919728526    -0.027703034675026
    -0.051470040466919    -0.027703034675026    -0.022692919728527
   1  89
     0.010537982604288    -0.039299311213358     0.039299311213358
    -0.039299311213359     0.026904040029136     0.032707921674555
     0.039299311213359     0.032707921674555     0.026904040029136
   1  90
    -0.022692919728527     0.051470040466919    -0.027703034675026
     0.051470040466919    -0.201316533616360     0.051470040466919
    -0.027703034675026     0.051470040466919    -0.022692919728526
   1  91
     0.027873804239091    -0.042412410897069     0.042412410897069
    -0.042412410897069     0.027873804239092     0.042412410897069
     0.042412410897069     0.042412410897069     0.027873804239091
   1  92
    -0.022692919728527     0.027703034675026    -0.051470040466919
     0.027703034675026    -0.022692919728526     0.051470040466919
    -0.051470040466919     0.051470040466919    -0.201316533616360
   1  93
    -0.005890345792732    -0.014477328745062     0.007665249306240
    -0.014477328745062     0.009054824507130     0.014477328745062
     0.007665249306240     0.014477328745062    -0.005890345792732
   1  94
    -0.022692919728526    -0.051470040466919    -0.027703034675026
    -0.051470040466919    -0.201316533616360    -0.051470040466919
    -0.027703034675026    -0.051470040466919    -0.022692919728527
   1  95
    -0.022692919728526     0.027703034675026     0.051470040466919
     0.027703034675026    -0.022692919728527    -0.051470040466919
     0.051470040466919    -0.051470040466919    -0.201316533616360
   1  96
    -0.005890345792732    -0.007665249306240     0.014477328745062
    -0.007665249306240    -0.005890345792732     0.014477328745062
     0.014477328745062     0.014477328745062     0.009054824507130
   1  97
     0.026904040029136    -0.032707921674555    -0.039299311213358
    -0.032707921674555     0.026904040029136    -0.039299311213358
    -0.039299311213359    -0.039299311213359     0.010537982604288
   1  98
     0.026904040029136     0.039299311213358     0.032707921674555
     0.039299311213359     0.010537982604288    -0.039299311213359
     0.032707921674555    -0.039299311213358     0.026904040029136
   1  99
     0.015290931170486    -0.003277543227498    -0.002410983216088
    -0.003277543227502     0.006303052809154    -0.003277543227502
    -0.002410983216088    -0.003277543227498     0.015290931170486
   1 100
     0.015290931170486     0.002410983216088     0.003277543227502
     0.002410983216088     0.015290931170486    -0.003277543227502
     0.003277543227498    -0.003277543227498     0.006303052809154
   1 101
     0.010537982604288     0.039299311213359    -0.039299311213359
     0.039299311213358     0.026904040029137     0.032707921674555
    -0.039299311213358     0.032707921674555     0.026904040029136
   1 102
    -0.022692919728526    -0.027703034675026     0.051470040466919
    -0.027703034675026    -0.022692919728527     0.051470040466919
     0.051470040466919     0.051470040466919    -0.201316533616360
   1 103
     0.027873804239091     0.042412410897069    -0.042412410897069
     0.042412410897069     0.027873804239092     0.042412410897069
    -0.042412410897069     0.042412410897069     0.027873804239091
   1 104
    -0.022692919728527    -0.051470040466919     0.027703034675026
    -0.051470040466919    -0.201316533616360     0.051470040466919
     0.027703034675026     0.051470040466919    -0.022692919728526
   1 105
     0.006303052809154    -0.003277543227502    -0.003277543227502
    -0.003277543227498     0.015290931170486    -0.002410983216088
    -0.003277543227498    -0.002410983216088     0.015290931170486
   1 106
     0.027873804239092     0.042412410897069     0.042412410897069
     0.042412410897069     0.027873804239092    -0.042412410897069
     0.042412410897069    -0.042412410897069     0.027873804239091
   1 107
     0.027873804239091    -0.042412410897069    -0.042412410897069
    -0.042412410897069     0.027873804239092    -0.042412410897069
    -0.042412410897069    -0.042412410897069     0.027873804239091
   1 108
     0.006303052809154     0.003277543227502     0.003277543227502
     0.003277543227498     0.015290931170486    -0.002410983216088
     0.003277543227498    -0.002410983216088     0.015290931170486
   1 109
     0.015290931170486     0.002410983216088    -0.003277543227502
     0.002410983216088     0.015290931170486     0.003277543227502
    -0.003277543227498     0.003277543227498     0.006303052809154
   1 110
    -0.201316533616360    -0.051470040466919     0.051470040466919
    -0.051470040466919    -0.022692919728527     0.027703034675026
     0.051470040466919     0.027703034675026    -0.022692919728526
   1 111
     0.015290931170486     0.003277543227502    -0.002410983216088
     0.003277543227498     0.006303052809154     0.003277543227498
    -0.002410983216088     0.003277543227502     0.015290931170486
   1 112
     0.011409611586870    -0.003294199674795     0.003294199674795
    -0.003294199674795     0.011409611586870     0.003294199674795
     0.003294199674795     0.003294199674795     0.011409611586870
   1 113
     0.010513050520650    -0.002855947735045     0.002855947735045
    -0.002855947735045     0.010513050520650     0.002855947735045
     0.002855947735045     0.002855947735045     0.010513050520650
   1 114
    -0.005890345792732     0.007665249306240     0.014477328745062
     0.007665249306240    -0.005890345792732    -0.014477328745062
     0.014477328745062    -0.014477328745061     0.009054824507130
   1 115
     0.006303052809154    -0.003277543227498     0.003277543227498
    -0.003277543227502     0.015290931170486     0.002410983216088
     0.003277543227502     0.002410983216088     0.015290931170486
   1 116
    -0.005890345792732    -0.014477328745062    -0.007665249306240
    -0.014477328745061     0.009054824507130    -0.014477328745061
    -0.007665249306240    -0.014477328745062    -0.005890345792732
   1 117
    -0.005890345792732     0.007665249306240    -0.014477328745062
     0.007665249306240    -0.005890345792732     0.014477328745062
    -0.014477328745062     0.014477328745061     0.009054824507130
   1 118
    -0.022692919728527    -0.027703034675026    -0.051470040466919
    -0.027703034675026    -0.022692919728526    -0.051470040466919
    -0.051470040466919    -0.051470040466919    -0.201316533616360
   1 119
    -0.022692919728526     0.051470040466919     0.027703034675026
     0.051470040466919    -0.201316533616360    -0.051470040466919
     0.027703034675026    -0.051470040466919    -0.022692919728527
   1 120
    -0.005890345792732     0.014477328745062    -0.007665249306240
     0.014477328745061     0.009054824507130     0.014477328745061
    -0.007665249306240     0.014477328745062    -0.005890345792732
   1 121
     0.015290931170486    -0.003277543227502     0.002410983216088
    -0.003277543227498     0.006303052809154     0.003277543227498
     0.002410983216088     0.003277543227502     0.015290931170486
   1 122
    -0.201316533616360     0.051470040466919    -0.051470040466919
     0.051470040466919    -0.022692919728526     0.027703034675026
    -0.051470040466919     0.027703034675026    -0.022692919728526
   1 123
     0.015290931170486    -0.002410983216088     0.003277543227502
    -0.002410983216088     0.015290931170486     0.003277543227502
     0.003277543227498     0.003277543227498     0.006303052809154
   1 124
     0.011409611586870     0.003294199674795    -0.003294199674795
     0.003294199674795     0.011409611586870     0.003294199674795
    -0.003294199674795     0.003294199674795     0.011409611586870
   1 125
     0.009054824507130    -0.014477328745061    -0.014477328745062
    -0.014477328745062    -0.005890345792732    -0.007665249306240
    -0.014477328745062    -0.007665249306240    -0.005890345792732
   1 126
     0.009054824507130     0.014477328745061     0.014477328745062
     0.014477328745062    -0.005890345792732    -0.007665249306240
     0.014477328745062    -0.007665249306240    -0.005890345792732
   1 127
     0.011409611586870     0.003294199674795     0.003294199674795
     0.003294199674795     0.011409611586870    -0.003294199674795
     0.003294199674795    -0.003294199674795     0.011409611586870
   1 128
     0.011409611586870    -0.003294199674795    -0.003294199674795
    -0.003294199674795     0.011409611586870    -0.003294199674795
    -0.003294199674795    -0.003294199674795     0.011409611586870
   2   1
     0.494205116128033    -0.093988374877847    -0.093988374877847
     0.093988374877847    -0.154157157539416    -0.203838440147883
     0.093988374877847    -0.203838440147883    -0.154157157539415
   2   2
    13.399310694372092     0.000000000000000     0.000000000000000
     0.000000000000000    13.399310694372092     0.000000000000000
     0.000000000000000     0.000000000000000    13.399310694372085
   2   3
     0.494205116128033     0.093988374877847     0.093988374877847
    -0.093988374877847    -0.154157157539415    -0.203838440147883
    -0.093988374877847    -0.203838440147883    -0.154157157539416
   2   4
     0.161562246365844     0.000000000000000     0.000000000000000
     0.000000000000000    -0.021213760148726    -0.036835773639214
     0.000000000000000    -0.036835773639214    -0.021213760148726
   2   5
    -0.154157157539416     0.203838440147883     0.093988374877847
     0.203838440147883    -0.154157157539415    -0.093988374877847
    -0.093988374877847     0.093988374877847     0.494205116128033
   2   6
    -0.154157157539416    -0.093988374877847    -0.203838440147883
     0.093988374877847     0.494205116128033     0.093988374877847
    -0.203838440147883    -0.093988374877847    -0.154157157539415
   2   7
    -0.008679527703939     0.026366896975246    -0.020527188526313
     0.026366896975246    -0.008679527703939    -0.020527188526313
    -0.014499405001887    -0.014499405001887    -0.004369720016814
   2   8
    -0.008679527703939     0.020527188526313    -0.026366896975246
     0.014499405001887    -0.004369720016814    -0.014499405001887
    -0.026366896975246    -0.020527188526313    -0.008679527703939
   2   9
    -0.004369720016814     0.020527188526313    -0.020527188526313
     0.014499405001887    -0.008679527703939    -0.026366896975246
    -0.014499405001887    -0.026366896975246    -0.008679527703939
   2  10
    -0.021213760148726     0.000000000000000    -0.036835773639214
     0.000000000000000     0.161562246365844     0.000000000000000
    -0.036835773639214     0.000000000000000    -0.021213760148726
   2  11
    -0.004369720016814     0.014499405001887    -0.014499405001887
     0.020527188526313    -0.008679527703939    -0.026366896975246
    -0.020527188526313    -0.026366896975246    -0.008679527703939
   2  12
    -0.021213760148726     0.036835773639214     0.000000000000000
     0.036835773639214    -0.021213760148726     0.000000000000000
     0.000000000000000     0.000000000000000     0.161562246365844
   2  13
    -0.008679527703939     0.026366896975246    -0.014499405001887
     0.026366896975246    -0.008679527703939    -0.014499405001887
    -0.020527188526313    -0.020527188526313    -0.004369720016814
   2  14
    -0.154157157539415     0.093988374877847    -0.203838440147883
    -0.093988374877847     0.494205116128033    -0.093988374877847
    -0.203838440147883     0.093988374877847    -0.154157157539416
   2  15
    -0.154157157539416     0.203838440147883    -0.093988374877847
     0.203838440147883    -0.154157157539415     0.093988374877847