nqpoint: 606    
npath: 6      
segment_nqpoint:
- 101
- 101
- 101
- 101
- 101
- 101
reciprocal_lattice:
- [   0.25644304,   0.00000000,   0.00000000 ] # a*
- [   0.00000000,   0.25644304,   0.00000000 ] # b*
- [   0.00000000,   0.00000000,   0.25644304 ] # c*
natom: 5      
lattice:
- [     3.899501355072209,     0.000000000000000,     0.000000000000000 ] # a
- [     0.000000000000000,     3.899501355072209,     0.000000000000000 ] # b
- [     0.000000000000000,     0.000000000000000,     3.899501355072209 ] # c
points:
- symbol: Sr # 1
  coordinates: [  0.000000000000000,  0.000000000000000,  0.000000000000000 ]
  mass: 87.620000
- symbol: Ti # 2
  coordinates: [  0.500000000000000,  0.500000000000000,  0.500000000000000 ]
  mass: 47.867000
- symbol: O  # 3
  coordinates: [  0.500000000000000,  0.500000000000000,  0.000000000000000 ]
  mass: 15.999400
- symbol: O  # 4
  coordinates: [  0.500000000000000,  0.000000000000000,  0.500000000000000 ]
  mass: 15.999400
- symbol: O  # 5
  coordinates: [  0.000000000000000,  0.500000000000000,  0.500000000000000 ]
  mass: 15.999400
supercell_matrix:
- [    9,    0,    0 ]
- [    0,    9,    0 ]
- [    0,    0,    9 ]

phonon:
- q-position: [    0.0000000,    0.0000000,    0.0000000 ]
  distance:    0.0000000
  band:
  - # 1
    frequency:   -8.3418591972
  - # 2
    frequency:   -8.3418591972
  - # 3
    frequency:   -0.0004768257
  - # 4
    frequency:   -0.0000151783
  - # 5
    frequency:   -0.0000151776
  - # 6
    frequency:    4.2499609308
  - # 7
    frequency:    4.2499609308
  - # 8
    frequency:    4.2499609308
  - # 9
    frequency:    4.3473165794
  - # 10
    frequency:    4.4260428796
  - # 11
    frequency:    4.4260428796
  - # 12
    frequency:   12.1249279494
  - # 13
    frequency:   15.7331058193
  - # 14
    frequency:   15.7331058193
  - # 15
    frequency:   21.9506379716

- q-position: [    0.0000000,    0.0050000,    0.0000000 ]
  distance:    0.0012822
  band:
  - # 1
    frequency:   -8.3408861285
  - # 2
    frequency:   -8.3408861285
  - # 3
    frequency:    0.0570244737
  - # 4
    frequency:    0.0570244737
  - # 5
    frequency:    0.1012480938
  - # 6
    frequency:    4.2507489132
  - # 7
    frequency:    4.2511632265
  - # 8
    frequency:    4.2511632265
  - # 9
    frequency:    4.3484687068
  - # 10
    frequency:    4.4259815643
  - # 11
    frequency:    4.4259815643
  - # 12
    frequency:   12.1254058914
  - # 13
    frequency:   15.7329165535
  - # 14
    frequency:   15.7329165535
  - # 15
    frequency:   21.9511440141

- q-position: [    0.0000000,    0.0100000,    0.0000000 ]
  distance:    0.0025644
  band:
  - # 1
    frequency:   -8.3379687327
  - # 2
    frequency:   -8.3379687327
  - # 3
    frequency:    0.1140176020
  - # 4
    frequency:    0.1140176020
  - # 5
    frequency:    0.2024168575
  - # 6
    frequency:    4.2531112073
  - # 7
    frequency:    4.2547688153
  - # 8
    frequency:    4.2547688153
  - # 9
    frequency:    4.3519248424
  - # 10
    frequency:    4.4257990779
  - # 11
    frequency:    4.4257990779
  - # 12
    frequency:   12.1268399030
  - # 13
    frequency:   15.7323489500
  - # 14
    frequency:   15.7323489500
  - # 15
    frequency:   21.9526611244

- q-position: [    0.0000000,    0.0150000,    0.0000000 ]
  distance:    0.0038466
  band:
  - # 1
    frequency:   -8.3331124383
  - # 2
    frequency:   -8.3331124383
  - # 3
    frequency:    0.1709480599
  - # 4
    frequency:    0.1709480599
  - # 5
    frequency:    0.3034232398
  - # 6
    frequency:    4.2570428638
  - # 7
    frequency:    4.2607734941
  - # 8
    frequency:    4.2607734941
  - # 9
    frequency:    4.3576842356
  - # 10
    frequency:    4.4255000955
  - # 11
    frequency:    4.4255000955
  - # 12
    frequency:   12.1292305423
  - # 13
    frequency:   15.7314035898
  - # 14
    frequency:   15.7314035898
  - # 15
    frequency:   21.9551862527

- q-position: [    0.0000000,    0.0200000,    0.0000000 ]
  distance:    0.0051289
  band:
  - # 1
    frequency:   -8.3263262897
  - # 2
    frequency:   -8.3263262897
  - # 3
    frequency:    0.2277845819
  - # 4
    frequency:    0.2277845819
  - # 5
    frequency:    0.4041865773
  - # 6
    frequency:    4.2625356668
  - # 7
    frequency:    4.2691690964
  - # 8
    frequency:    4.2691690964
  - # 9
    frequency:    4.3657455999
  - # 10
    frequency:    4.4250935278
  - # 11
    frequency:    4.4250935278
  - # 12
    frequency:   12.1325787397
  - # 13
    frequency:   15.7300814401
  - # 14
    frequency:   15.7300814401
  - # 15
    frequency:   21.9587143240

- q-position: [    0.0000000,    0.0250000,    0.0000000 ]
  distance:    0.0064111
  band:
  - # 1
    frequency:   -8.3176229400
  - # 2
    frequency:   -8.3176229400
  - # 3
    frequency:    0.2844959890
  - # 4
    frequency:    0.2844959890
  - # 5
    frequency:    0.5046260701
  - # 6
    frequency:    4.2695781827
  - # 7
    frequency:    4.2799411885
  - # 8
    frequency:    4.2799411885
  - # 9
    frequency:    4.3761070591
  - # 10
    frequency:    4.4245947635
  - # 11
    frequency:    4.4245947635
  - # 12
    frequency:   12.1368857994
  - # 13
    frequency:   15.7283838527
  - # 14
    frequency:   15.7283838527
  - # 15
    frequency:   21.9632382495

- q-position: [    0.0000000,    0.0300000,    0.0000000 ]
  distance:    0.0076933
  band:
  - # 1
    frequency:   -8.3070186424
  - # 2
    frequency:   -8.3070186424
  - # 3
    frequency:    0.3410512248
  - # 4
    frequency:    0.3410512248
  - # 5
    frequency:    0.6046610273
  - # 6
    frequency:    4.2781558280
  - # 7
    frequency:    4.2930642377
  - # 8
    frequency:    4.2930642377
  - # 9
    frequency:    4.3887660681
  - # 10
    frequency:    4.4240304133
  - # 11
    frequency:    4.4240304133
  - # 12
    frequency:   12.1421534002
  - # 13
    frequency:   15.7263125612
  - # 14
    frequency:   15.7263125612
  - # 15
    frequency:   21.9687489435

- q-position: [    0.0000000,    0.0350000,    0.0000000 ]
  distance:    0.0089755
  band:
  - # 1
    frequency:   -8.2945332376
  - # 2
    frequency:   -8.2945332376
  - # 3
    frequency:    0.3974193962
  - # 4
    frequency:    0.3974193962
  - # 5
    frequency:    0.7042109758
  - # 6
    frequency:    4.2882509539
  - # 7
    frequency:    4.3084908704
  - # 8
    frequency:    4.3084908704
  - # 9
    frequency:    4.4037193083
  - # 10
    frequency:    4.4234489405
  - # 11
    frequency:    4.4234489405
  - # 12
    frequency:   12.1483835972
  - # 13
    frequency:   15.7238696782
  - # 14
    frequency:   15.7238696782
  - # 15
    frequency:   21.9752353438

- q-position: [    0.0000000,    0.0400000,    0.0000000 ]
  distance:    0.0102577
  band:
  - # 1
    frequency:   -8.2801901370
  - # 2
    frequency:   -8.2801901370
  - # 3
    frequency:    0.4535698213
  - # 4
    frequency:    0.4535698213
  - # 5
    frequency:    0.8031957786
  - # 6
    frequency:    4.2998429483
  - # 7
    frequency:    4.3261252567
  - # 8
    frequency:    4.3261252567
  - # 9
    frequency:    4.4209625535
  - # 10
    frequency:    4.4229471408
  - # 11
    frequency:    4.4229471408
  - # 12
    frequency:   12.1555788224
  - # 13
    frequency:   15.7210576913
  - # 14
    frequency:   15.7210576913
  - # 15
    frequency:   21.9826844377

- q-position: [    0.0000000,    0.0450000,    0.0000000 ]
  distance:    0.0115399
  band:
  - # 1
    frequency:   -8.2640163007
  - # 2
    frequency:   -8.2640163007
  - # 3
    frequency:    0.5094720836
  - # 4
    frequency:    0.5094720836
  - # 5
    frequency:    0.9015357835
  - # 6
    frequency:    4.3129083516
  - # 7
    frequency:    4.3457463421
  - # 8
    frequency:    4.3457463421
  - # 9
    frequency:    4.4227467526
  - # 10
    frequency:    4.4227467526
  - # 11
    frequency:    4.4404905040
  - # 12
    frequency:   12.1637418865
  - # 13
    frequency:   15.7178794591
  - # 14
    frequency:   15.7178794591
  - # 15
    frequency:   21.9910812919

- q-position: [    0.0000000,    0.0500000,    0.0000000 ]
  distance:    0.0128222
  band:
  - # 1
    frequency:   -8.2460422107
  - # 2
    frequency:   -8.2460422107
  - # 3
    frequency:    0.5650960942
  - # 4
    frequency:    0.5650960942
  - # 5
    frequency:    0.9991520097
  - # 6
    frequency:    4.3274209871
  - # 7
    frequency:    4.3667386688
  - # 8
    frequency:    4.3667386688
  - # 9
    frequency:    4.4234634537
  - # 10
    frequency:    4.4234634537
  - # 11
    frequency:    4.4622965859
  - # 12
    frequency:   12.1728759785
  - # 13
    frequency:   15.7143382054
  - # 14
    frequency:   15.7143382054
  - # 15
    frequency:   22.0004090872

- q-position: [    0.0000000,    0.0550000,    0.0000000 ]
  distance:    0.0141044
  band:
  - # 1
    frequency:   -8.2263018359
  - # 2
    frequency:   -8.2263018359
  - # 3
    frequency:    0.6204121612
  - # 4
    frequency:    0.6204121612
  - # 5
    frequency:    1.0959663761
  - # 6
    frequency:    4.3433521021
  - # 7
    frequency:    4.3869905129
  - # 8
    frequency:    4.3869905129
  - # 9
    frequency:    4.4272085233
  - # 10
    frequency:    4.4272085233
  - # 11
    frequency:    4.4863727130
  - # 12
    frequency:   12.1829846659
  - # 13
    frequency:   15.7104375142
  - # 14
    frequency:   15.7104375142
  - # 15
    frequency:   22.0106491575

- q-position: [    0.0000000,    0.0600000,    0.0000000 ]
  distance:    0.0153866
  band:
  - # 1
    frequency:   -8.2048325901
  - # 2
    frequency:   -8.2048325901
  - # 3
    frequency:    0.6753910673
  - # 4
    frequency:    0.6753910673
  - # 5
    frequency:    1.1919019750
  - # 6
    frequency:    4.3606705191
  - # 7
    frequency:    4.4005983569
  - # 8
    frequency:    4.4005983569
  - # 9
    frequency:    4.4398841466
  - # 10
    frequency:    4.4398841466
  - # 11
    frequency:    4.5127090111
  - # 12
    frequency:   12.1940718928
  - # 13
    frequency:   15.7061813231
  - # 14
    frequency:   15.7061813231
  - # 15
    frequency:   22.0217810329

- q-position: [    0.0000000,    0.0650000,    0.0000000 ]
  distance:    0.0166688
  band:
  - # 1
    frequency:   -8.1816752805
  - # 2
    frequency:   -8.1816752805
  - # 3
    frequency:    0.7300041530
  - # 4
    frequency:    0.7300041530
  - # 5
    frequency:    1.2868833914
  - # 6
    frequency:    4.3793427951
  - # 7
    frequency:    4.4051681092
  - # 8
    frequency:    4.4051681092
  - # 9
    frequency:    4.4638819566
  - # 10
    frequency:    4.4638819566
  - # 11
    frequency:    4.5412935016
  - # 12
    frequency:   12.2061419771
  - # 13
    frequency:   15.7015739166
  - # 14
    frequency:   15.7015739166
  - # 15
    frequency:   22.0337824875

- q-position: [    0.0000000,    0.0700000,    0.0000000 ]
  distance:    0.0179510
  band:
  - # 1
    frequency:   -8.1568740457
  - # 2
    frequency:   -8.1568740457
  - # 3
    frequency:    0.7842234066
  - # 4
    frequency:    0.7842234066
  - # 5
    frequency:    1.3808370683
  - # 6
    frequency:    4.3993333870
  - # 7
    frequency:    4.4057413707
  - # 8
    frequency:    4.4057413707
  - # 9
    frequency:    4.4941565131
  - # 10
    frequency:    4.4941565131
  - # 11
    frequency:    4.5721117477
  - # 12
    frequency:   12.2191996055
  - # 13
    frequency:   15.6966199188
  - # 14
    frequency:   15.6966199188
  - # 15
    frequency:   22.0466295908

- q-position: [    0.0000000,    0.0750000,    0.0000000 ]
  distance:    0.0192332
  band:
  - # 1
    frequency:   -8.1304762822
  - # 2
    frequency:   -8.1304762822
  - # 3
    frequency:    0.8380215583
  - # 4
    frequency:    0.8380215583
  - # 5
    frequency:    1.4736917144
  - # 6
    frequency:    4.4049153262
  - # 7
    frequency:    4.4049153262
  - # 8
    frequency:    4.4206048216
  - # 9
    frequency:    4.5281051432
  - # 10
    frequency:    4.5281051432
  - # 11
    frequency:    4.6051464637
  - # 12
    frequency:   12.2332498262
  - # 13
    frequency:   15.6913242851
  - # 14
    frequency:   15.6913242851
  - # 15
    frequency:   22.0602967635

- q-position: [    0.0000000,    0.0800000,    0.0000000 ]
  distance:    0.0205154
  band:
  - # 1
    frequency:   -8.1025325572
  - # 2
    frequency:   -8.1025325572
  - # 3
    frequency:    0.8913721774
  - # 4
    frequency:    0.8913721774
  - # 5
    frequency:    1.5653787496
  - # 6
    frequency:    4.4034610037
  - # 7
    frequency:    4.4034610037
  - # 8
    frequency:    4.4431178670
  - # 9
    frequency:    4.5649494052
  - # 10
    frequency:    4.5649494052
  - # 11
    frequency:    4.6403770948
  - # 12
    frequency:   12.2482980394
  - # 13
    frequency:   15.6856922948
  - # 14
    frequency:   15.6856922948
  - # 15
    frequency:   22.0747568370

- q-position: [    0.0000000,    0.0850000,    0.0000000 ]
  distance:    0.0217977
  band:
  - # 1
    frequency:   -8.0730965080
  - # 2
    frequency:   -8.0730965080
  - # 3
    frequency:    0.9442497702
  - # 4
    frequency:    0.9442497703
  - # 5
    frequency:    1.6558327814
  - # 6
    frequency:    4.4016479255
  - # 7
    frequency:    4.4016479255
  - # 8
    frequency:    4.4668317065
  - # 9
    frequency:    4.6044101550
  - # 10
    frequency:    4.6044101550
  - # 11
    frequency:    4.6777793710
  - # 12
    frequency:   12.2643499837
  - # 13
    frequency:   15.6797295413
  - # 14
    frequency:   15.6797295413
  - # 15
    frequency:   22.0899811167

- q-position: [    0.0000000,    0.0900000,    0.0000000 ]
  distance:    0.0230799
  band:
  - # 1
    frequency:   -8.0422247249
  - # 2
    frequency:   -8.0422247249
  - # 3
    frequency:    0.9966298773
  - # 4
    frequency:    0.9966298773
  - # 5
    frequency:    1.7449921016
  - # 6
    frequency:    4.3995923063
  - # 7
    frequency:    4.3995923063
  - # 8
    frequency:    4.4917041102
  - # 9
    frequency:    4.6463590623
  - # 10
    frequency:    4.6463590623
  - # 11
    frequency:    4.7173248484
  - # 12
    frequency:   12.2814117196
  - # 13
    frequency:   15.6734419238
  - # 14
    frequency:   15.6734419238
  - # 15
    frequency:   22.1059394490

- q-position: [    0.0000000,    0.0950000,    0.0000000 ]
  distance:    0.0243621
  band:
  - # 1
    frequency:   -8.0099766179
  - # 2
    frequency:   -8.0099766179
  - # 3
    frequency:    1.0484891667
  - # 4
    frequency:    1.0484891667
  - # 5
    frequency:    1.8327991908
  - # 6
    frequency:    4.3973534717
  - # 7
    frequency:    4.3973534717
  - # 8
    frequency:    4.5176916055
  - # 9
    frequency:    4.6907219097
  - # 10
    frequency:    4.6907219097
  - # 11
    frequency:    4.7589804475
  - # 12
    frequency:   12.2994896086
  - # 13
    frequency:   15.6668356372
  - # 14
    frequency:   15.6668356372
  - # 15
    frequency:   22.1226002919

- q-position: [    0.0000000,    0.1000000,    0.0000000 ]
  distance:    0.0256443
  band:
  - # 1
    frequency:   -7.9764142654
  - # 2
    frequency:   -7.9764142654
  - # 3
    frequency:    1.0998055223
  - # 4
    frequency:    1.0998055223
  - # 5
    frequency:    1.9192012169
  - # 6
    frequency:    4.3949661762
  - # 7
    frequency:    4.3949661762
  - # 8
    frequency:    4.5447496432
  - # 9
    frequency:    4.7374459976
  - # 10
    frequency:    4.7374459976
  - # 11
    frequency:    4.8027080036
  - # 12
    frequency:   12.3185902874
  - # 13
    frequency:   15.6599171626
  - # 14
    frequency:   15.6599171626
  - # 15
    frequency:   22.1399307883

- q-position: [    0.0000000,    0.1050000,    0.0000000 ]
  distance:    0.0269265
  band:
  - # 1
    frequency:   -7.9416022449
  - # 2
    frequency:   -7.9416022449
  - # 3
    frequency:    1.1505581239
  - # 4
    frequency:    1.1505581239
  - # 5
    frequency:    2.0041505111
  - # 6
    frequency:    4.3924533066
  - # 7
    frequency:    4.3924533066
  - # 8
    frequency:    4.5728327601
  - # 9
    frequency:    4.7864871761
  - # 10
    frequency:    4.7864871761
  - # 11
    frequency:    4.8484638450
  - # 12
    frequency:   12.3387206370
  - # 13
    frequency:   15.6526932573
  - # 14
    frequency:   15.6526932573
  - # 15
    frequency:   22.1578968435

- q-position: [    0.0000000,    0.1100000,    0.0000000 ]
  distance:    0.0282087
  band:
  - # 1
    frequency:   -7.9056074444
  - # 2
    frequency:   -7.9056074444
  - # 3
    frequency:    1.2007275167
  - # 4
    frequency:    1.2007275167
  - # 5
    frequency:    2.0876050033
  - # 6
    frequency:    4.3898315226
  - # 7
    frequency:    4.3898315226
  - # 8
    frequency:    4.6018947346
  - # 9
    frequency:    4.8378039544
  - # 10
    frequency:    4.8378039544
  - # 11
    frequency:    4.8961984171
  - # 12
    frequency:   12.3598877464
  - # 13
    frequency:   15.6451709441
  - # 14
    frequency:   15.6451709441
  - # 15
    frequency:   22.1764632047

- q-position: [    0.0000000,    0.1150000,    0.0000000 ]
  distance:    0.0294910
  band:
  - # 1
    frequency:   -7.8684988545
  - # 2
    frequency:   -7.8684988545
  - # 3
    frequency:    1.2502956694
  - # 4
    frequency:    1.2502956694
  - # 5
    frequency:    2.1695286000
  - # 6
    frequency:    4.3871140106
  - # 7
    frequency:    4.3871140106
  - # 8
    frequency:    4.6318887369
  - # 9
    frequency:    4.8913545181
  - # 10
    frequency:    4.8913545181
  - # 11
    frequency:    4.9458559686
  - # 12
    frequency:   12.3820988695
  - # 13
    frequency:   15.6373575011
  - # 14
    frequency:   15.6373575011
  - # 15
    frequency:   22.1955935442

- q-position: [    0.0000000,    0.1200000,    0.0000000 ]
  distance:    0.0307732
  band:
  - # 1
    frequency:   -7.8303473417
  - # 2
    frequency:   -7.8303473417
  - # 3
    frequency:    1.2992460181
  - # 4
    frequency:    1.2992460181
  - # 5
    frequency:    2.2498914889
  - # 6
    frequency:    4.3843119308
  - # 7
    frequency:    4.3843119308
  - # 8
    frequency:    4.6627674718
  - # 9
    frequency:    4.9470950780
  - # 10
    frequency:    4.9470950780
  - # 11
    frequency:    4.9973743162
  - # 12
    frequency:   12.4053613755
  - # 13
    frequency:   15.6292604507
  - # 14
    frequency:   15.6292604507
  - # 15
    frequency:   22.2152505442

- q-position: [    0.0000000,    0.1250000,    0.0000000 ]
  distance:    0.0320554
  band:
  - # 1
    frequency:   -7.7912254036
  - # 2
    frequency:   -7.7912254036
  - # 3
    frequency:    1.3475634955
  - # 4
    frequency:    1.3475634955
  - # 5
    frequency:    2.3286703532
  - # 6
    frequency:    4.3814352227
  - # 7
    frequency:    4.3814352227
  - # 8
    frequency:    4.6944833137
  - # 9
    frequency:    5.0049788895
  - # 10
    frequency:    5.0049788895
  - # 11
    frequency:    5.0506847043
  - # 12
    frequency:   12.4296826920
  - # 13
    frequency:   15.6208875493
  - # 14
    frequency:   15.6208875493
  - # 15
    frequency:   22.2353959852

- q-position: [    0.0000000,    0.1300000,    0.0000000 ]
  distance:    0.0333376
  band:
  - # 1
    frequency:   -7.7512069058
  - # 2
    frequency:   -7.7512069058
  - # 3
    frequency:    1.3952345435
  - # 4
    frequency:    1.3952345435
  - # 5
    frequency:    2.4058484864
  - # 6
    frequency:    4.3784930752
  - # 7
    frequency:    4.3784930752
  - # 8
    frequency:    4.7269884336
  - # 9
    frequency:    5.0649556393
  - # 10
    frequency:    5.0649556393
  - # 11
    frequency:    5.1057117697
  - # 12
    frequency:   12.4550702404
  - # 13
    frequency:   15.6122467762
  - # 14
    frequency:   15.6122467762
  - # 15
    frequency:   22.2559908361

- q-position: [    0.0000000,    0.1350000,    0.0000000 ]
  distance:    0.0346198
  band:
  - # 1
    frequency:   -7.7103668031
  - # 2
    frequency:   -7.7103668031
  - # 3
    frequency:    1.4422471100
  - # 4
    frequency:    1.4422471100
  - # 5
    frequency:    2.4814157977
  - # 6
    frequency:    4.3754942112
  - # 7
    frequency:    4.3754942112
  - # 8
    frequency:    4.7602349179
  - # 9
    frequency:    5.1269710554
  - # 10
    frequency:    5.1269710554
  - # 11
    frequency:    5.1623736198
  - # 12
    frequency:   12.4815313631
  - # 13
    frequency:   15.6033463227
  - # 14
    frequency:   15.6033463227
  - # 15
    frequency:   22.2769953458

- q-position: [    0.0000000,    0.1400000,    0.0000000 ]
  distance:    0.0359020
  band:
  - # 1
    frequency:   -7.6687808465
  - # 2
    frequency:   -7.6687808465
  - # 3
    frequency:    1.4885906288
  - # 4
    frequency:    1.4885906288
  - # 5
    frequency:    2.5553687050
  - # 6
    frequency:    4.3724470637
  - # 7
    frequency:    4.3724470637
  - # 8
    frequency:    4.7941748792
  - # 9
    frequency:    5.1909666631
  - # 10
    frequency:    5.1909666631
  - # 11
    frequency:    5.2205820295
  - # 12
    frequency:   12.5090732424
  - # 13
    frequency:   15.5941945814
  - # 14
    frequency:   15.5941945814
  - # 15
    frequency:   22.2983691380

- q-position: [    0.0000000,    0.1450000,    0.0000000 ]
  distance:    0.0371842
  band:
  - # 1
    frequency:   -7.6265252787
  - # 2
    frequency:   -7.6265252787
  - # 3
    frequency:    1.5342559842
  - # 4
    frequency:    1.5342559842
  - # 5
    frequency:    2.6277099174
  - # 6
    frequency:    4.3693598864
  - # 7
    frequency:    4.3693598864
  - # 8
    frequency:    4.8287605578
  - # 9
    frequency:    5.2568796475
  - # 10
    frequency:    5.2568796475
  - # 11
    frequency:    5.2802427528
  - # 12
    frequency:   12.5377028101
  - # 13
    frequency:   15.5848001355
  - # 14
    frequency:   15.5848001355
  - # 15
    frequency:   22.3200713065

- q-position: [    0.0000000,    0.1500000,    0.0000000 ]
  distance:    0.0384665
  band:
  - # 1
    frequency:   -7.5836765196
  - # 2
    frequency:   -7.5836765196
  - # 3
    frequency:    1.5792354600
  - # 4
    frequency:    1.5792354600
  - # 5
    frequency:    2.6984481124
  - # 6
    frequency:    4.3662408245
  - # 7
    frequency:    4.3662408245
  - # 8
    frequency:    4.8639444159
  - # 9
    frequency:    5.3246427986
  - # 10
    frequency:    5.3246427986
  - # 11
    frequency:    5.3412559463
  - # 12
    frequency:   12.5674266484
  - # 13
    frequency:   15.5751717483
  - # 14
    frequency:   15.5751717483
  - # 15
    frequency:   22.3420605124

- q-position: [    0.0000000,    0.1550000,    0.0000000 ]
  distance:    0.0397487
  band:
  - # 1
    frequency:   -7.5403108468
  - # 2
    frequency:   -7.5403108468
  - # 3
    frequency:    1.6235226747
  - # 4
    frequency:    1.6235226747
  - # 5
    frequency:    2.7675975185
  - # 6
    frequency:    4.3630979578
  - # 7
    frequency:    4.3630979578
  - # 8
    frequency:    4.8996792233
  - # 9
    frequency:    5.3941845255
  - # 10
    frequency:    5.3941845255
  - # 11
    frequency:    5.4035166920
  - # 12
    frequency:   12.5982508818
  - # 13
    frequency:   15.5653183524
  - # 14
    frequency:   15.5653183524
  - # 15
    frequency:   22.3642950828

- q-position: [    0.0000000,    0.1600000,    0.0000000 ]
  distance:    0.0410309
  band:
  - # 1
    frequency:   -7.4965040734
  - # 2
    frequency:   -7.4965040734
  - # 3
    frequency:    1.6671125054
  - # 4
    frequency:    1.6671125054
  - # 5
    frequency:    2.8351774179
  - # 6
    frequency:    4.3599393274
  - # 7
    frequency:    4.3599393274
  - # 8
    frequency:    4.9359181346
  - # 9
    frequency:    5.4654289318
  - # 10
    frequency:    5.4654289318
  - # 11
    frequency:    5.4669156067
  - # 12
    frequency:   12.6301810590
  - # 13
    frequency:   15.5552490400
  - # 14
    frequency:   15.5552490400
  - # 15
    frequency:   22.3867331101

- q-position: [    0.0000000,    0.1650000,    0.0000000 ]
  distance:    0.0423131
  band:
  - # 1
    frequency:   -7.4523312276
  - # 2
    frequency:   -7.4523312276
  - # 3
    frequency:    1.7100010001
  - # 4
    frequency:    1.7100010001
  - # 5
    frequency:    2.9012115857
  - # 6
    frequency:    4.3567729491
  - # 7
    frequency:    4.3567729491
  - # 8
    frequency:    4.9726147594
  - # 9
    frequency:    5.5313395198
  - # 10
    frequency:    5.5382959431
  - # 11
    frequency:    5.5382959431
  - # 12
    frequency:   12.6632220267
  - # 13
    frequency:   15.5449730526
  - # 14
    frequency:   15.5449730526
  - # 15
    frequency:   22.4093325524

- q-position: [    0.0000000,    0.1700000,    0.0000000 ]
  distance:    0.0435953
  band:
  - # 1
    frequency:   -7.4078662374
  - # 2
    frequency:   -7.4078662374
  - # 3
    frequency:    1.7521852833
  - # 4
    frequency:    1.7521852833
  - # 5
    frequency:    2.9657276841
  - # 6
    frequency:    4.3536068197
  - # 7
    frequency:    4.3536068197
  - # 8
    frequency:    5.0097232255
  - # 9
    frequency:    5.5966722023
  - # 10
    frequency:    5.6127014840
  - # 11
    frequency:    5.6127014840
  - # 12
    frequency:   12.6973777934
  - # 13
    frequency:   15.5344997713
  - # 14
    frequency:   15.5344997713
  - # 15
    frequency:   22.4320513347

- q-position: [    0.0000000,    0.1750000,    0.0000000 ]
  distance:    0.0448775
  band:
  - # 1
    frequency:   -7.3631816253
  - # 2
    frequency:   -7.3631816253
  - # 3
    frequency:    1.7936634541
  - # 4
    frequency:    1.7936634541
  - # 5
    frequency:    3.0287566309
  - # 6
    frequency:    4.3504489161
  - # 7
    frequency:    4.3504489161
  - # 8
    frequency:    5.0471982340
  - # 9
    frequency:    5.6627951268
  - # 10
    frequency:    5.6885576984
  - # 11
    frequency:    5.6885576984
  - # 12
    frequency:   12.7326513853
  - # 13
    frequency:   15.5238387078
  - # 14
    frequency:   15.5238387078
  - # 15
    frequency:   22.4548474502

- q-position: [    0.0000000,    0.1800000,    0.0000000 ]
  distance:    0.0461597
  band:
  - # 1
    frequency:   -7.3183482169
  - # 2
    frequency:   -7.3183482169
  - # 3
    frequency:    1.8344344816
  - # 4
    frequency:    1.8344344816
  - # 5
    frequency:    3.0903319611
  - # 6
    frequency:    4.3473071900
  - # 7
    frequency:    4.3473071900
  - # 8
    frequency:    5.0849951091
  - # 9
    frequency:    5.7295882403
  - # 10
    frequency:    5.7657732089
  - # 11
    frequency:    5.7657732089
  - # 12
    frequency:   12.7690446937
  - # 13
    frequency:   15.5129994951
  - # 14
    frequency:   15.5129994951
  - # 15
    frequency:   22.4776790621

- q-position: [    0.0000000,    0.1850000,    0.0000000 ]
  distance:    0.0474420
  band:
  - # 1
    frequency:   -7.2734348664
  - # 2
    frequency:   -7.2734348664
  - # 3
    frequency:    1.8744980971
  - # 4
    frequency:    1.8744980971
  - # 5
    frequency:    3.1504891984
  - # 6
    frequency:    4.3441895599
  - # 7
    frequency:    4.3441895599
  - # 8
    frequency:    5.1230698409
  - # 9
    frequency:    5.7969307314
  - # 10
    frequency:    5.8442534098
  - # 11
    frequency:    5.8442534098
  - # 12
    frequency:   12.8065583151
  - # 13
    frequency:   15.5019918789
  - # 14
    frequency:   15.5019918789
  - # 15
    frequency:   22.5005046057

- q-position: [    0.0000000,    0.1900000,    0.0000000 ]
  distance:    0.0487242
  band:
  - # 1
    frequency:   -7.2285082046
  - # 2
    frequency:   -7.2285082046
  - # 3
    frequency:    1.9138546881
  - # 4
    frequency:    1.9138546881
  - # 5
    frequency:    3.2092652510
  - # 6
    frequency:    4.3411038991
  - # 7
    frequency:    4.3411038991
  - # 8
    frequency:    5.1613791226
  - # 9
    frequency:    5.8647017779
  - # 10
    frequency:    5.9239007902
  - # 11
    frequency:    5.9239007902
  - # 12
    frequency:   12.8451913850
  - # 13
    frequency:   15.4908257098
  - # 14
    frequency:   15.4908257098
  - # 15
    frequency:   22.5232828897

- q-position: [    0.0000000,    0.1950000,    0.0000000 ]
  distance:    0.0500064
  band:
  - # 1
    frequency:   -7.1836324108
  - # 2
    frequency:   -7.1836324108
  - # 3
    frequency:    1.9525051929
  - # 4
    frequency:    1.9525051929
  - # 5
    frequency:    3.2666978445
  - # 6
    frequency:    4.3380580227
  - # 7
    frequency:    4.3380580227
  - # 8
    frequency:    5.1998803831
  - # 9
    frequency:    5.9327812601
  - # 10
    frequency:    6.0046152810
  - # 11
    frequency:    6.0046152810
  - # 12
    frequency:   12.8849414055
  - # 13
    frequency:   15.4795109354
  - # 14
    frequency:   15.4795109354
  - # 15
    frequency:   22.5459731981

- q-position: [    0.0000000,    0.2000000,    0.0000000 ]
  distance:    0.0512886
  band:
  - # 1
    frequency:   -7.1388690123
  - # 2
    frequency:   -7.1388690123
  - # 3
    frequency:    1.9904509997
  - # 4
    frequency:    1.9904509997
  - # 5
    frequency:    3.3228250017
  - # 6
    frequency:    4.3350596716
  - # 7
    frequency:    4.3350596716
  - # 8
    frequency:    5.2385318135
  - # 9
    frequency:    6.0010504318
  - # 10
    frequency:    6.0862946206
  - # 11
    frequency:    6.0862946206
  - # 12
    frequency:   12.9258040689
  - # 13
    frequency:   15.4680575932
  - # 14
    frequency:   15.4680575932
  - # 15
    frequency:   22.5685353906

- q-position: [    0.0000000,    0.2050000,    0.0000000 ]
  distance:    0.0525708
  band:
  - # 1
    frequency:   -7.0942767144
  - # 2
    frequency:   -7.0942767144
  - # 3
    frequency:    2.0276938506
  - # 4
    frequency:    2.0276938506
  - # 5
    frequency:    3.3776845745
  - # 6
    frequency:    4.3321164957
  - # 7
    frequency:    4.3321164957
  - # 8
    frequency:    5.2772923898
  - # 9
    frequency:    6.0693925385
  - # 10
    frequency:    6.1688347341
  - # 11
    frequency:    6.1688347341
  - # 12
    frequency:   12.9677730784
  - # 13
    frequency:   15.4564758038
  - # 14
    frequency:   15.4564758038
  - # 15
    frequency:   22.5909300035

- q-position: [    0.0000000,    0.2100000,    0.0000000 ]
  distance:    0.0538530