14.400
   6.4956080  -0.0000000   0.0000000   0.0000000   6.4956080  -0.0000000  -0.0000000   0.0000000   6.4956080
   2.5421400   0.0000000   0.0000000   0.0000000   2.5421800   0.0000000  -0.0000000   0.0000000   2.5422100
   7.4238100  -0.0000000  -0.0000000   0.0000000   7.4238100  -0.0000000  -0.0000000   0.0000000   7.4238100
  -2.0303500  -0.0000000   0.0000000   0.0000000  -2.0303700  -0.0000000   0.0000000  -0.0000000  -5.9064500
