nqpoint: 404    
npath: 4      
segment_nqpoint:
- 101
- 101
- 101
- 101
reciprocal_lattice:
- [  -0.18310888,   0.18310888,   0.18310888 ] # a*
- [   0.18310888,  -0.18310888,   0.18310888 ] # b*
- [   0.18310888,   0.18310888,  -0.18310888 ] # c*
natom: 2      
lattice:
- [     0.000000000000000,     2.730615835179053,     2.730615835179053 ] # a
- [     2.730615835179053,     0.000000000000000,     2.730615835179053 ] # b
- [     2.730615835179053,     2.730615835179053,     0.000000000000000 ] # c
points:
- symbol: Si # 1
  coordinates: [  0.875000000000000,  0.875000000000000,  0.875000000000000 ]
  mass: 28.085500
- symbol: Si # 2
  coordinates: [  0.125000000000000,  0.125000000000000,  0.125000000000000 ]
  mass: 28.085500
supercell_matrix:
- [   16,    0,    0 ]
- [    0,   16,    0 ]
- [    0,    0,   16 ]

phonon:
- q-position: [    0.0000000,    0.0000000,    0.0000000 ]
  distance:    0.0000000
  label: 'Gamma'
  band:
  - # 1
    frequency:   -0.0000001309
  - # 2
    frequency:    0.0000002005
  - # 3
    frequency:    0.0000002351
  - # 4
    frequency:   13.5148978023
  - # 5
    frequency:   13.5148978023
  - # 6
    frequency:   13.5148978023

- q-position: [    0.0050000,    0.0000000,    0.0050000 ]
  distance:    0.0018311
  band:
  - # 1
    frequency:    0.0676371239
  - # 2
    frequency:    0.0676371239
  - # 3
    frequency:    0.1479517858
  - # 4
    frequency:   13.5154851974
  - # 5
    frequency:   13.5154851974
  - # 6
    frequency:   13.5159161304

- q-position: [    0.0100000,    0.0000000,    0.0100000 ]
  distance:    0.0036622
  band:
  - # 1
    frequency:    0.1352946546
  - # 2
    frequency:    0.1352946546
  - # 3
    frequency:    0.2958932514
  - # 4
    frequency:   13.5172426005
  - # 5
    frequency:   13.5172426005
  - # 6
    frequency:   13.5189653833

- q-position: [    0.0150000,    0.0000000,    0.0150000 ]
  distance:    0.0054933
  band:
  - # 1
    frequency:    0.2029926580
  - # 2
    frequency:    0.2029926580
  - # 3
    frequency:    0.4438138877
  - # 4
    frequency:   13.5201557109
  - # 5
    frequency:   13.5201557109
  - # 6
    frequency:   13.5240284082

- q-position: [    0.0200000,    0.0000000,    0.0200000 ]
  distance:    0.0073244
  band:
  - # 1
    frequency:    0.2707505231
  - # 2
    frequency:    0.2707505231
  - # 3
    frequency:    0.5917028079
  - # 4
    frequency:   13.5242008457
  - # 5
    frequency:   13.5242008457
  - # 6
    frequency:   13.5310767530

- q-position: [    0.0250000,    0.0000000,    0.0250000 ]
  distance:    0.0091554
  band:
  - # 1
    frequency:    0.3385866333
  - # 2
    frequency:    0.3385866333
  - # 3
    frequency:    0.7395485627
  - # 4
    frequency:   13.5293451651
  - # 5
    frequency:   13.5293451651
  - # 6
    frequency:   13.5400708685

- q-position: [    0.0300000,    0.0000000,    0.0300000 ]
  distance:    0.0109865
  band:
  - # 1
    frequency:    0.4065180490
  - # 2
    frequency:    0.4065180490
  - # 3
    frequency:    0.8873389585
  - # 4
    frequency:   13.5355469835
  - # 5
    frequency:   13.5355469835
  - # 6
    frequency:   13.5509603881

- q-position: [    0.0350000,    0.0000000,    0.0350000 ]
  distance:    0.0128176
  band:
  - # 1
    frequency:    0.4745602061
  - # 2
    frequency:    0.4745602061
  - # 3
    frequency:    1.0350608801
  - # 4
    frequency:   13.5427561618
  - # 5
    frequency:   13.5427561618
  - # 6
    frequency:   13.5636844799

- q-position: [    0.0400000,    0.0000000,    0.0400000 ]
  distance:    0.0146487
  band:
  - # 1
    frequency:    0.5427266314
  - # 2
    frequency:    0.5427266314
  - # 3
    frequency:    1.1827001207
  - # 4
    frequency:   13.5509145755
  - # 5
    frequency:   13.5509145755
  - # 6
    frequency:   13.5781722678

- q-position: [    0.0450000,    0.0000000,    0.0450000 ]
  distance:    0.0164798
  band:
  - # 1
    frequency:    0.6110286784
  - # 2
    frequency:    0.6110286784
  - # 3
    frequency:    1.3302412185
  - # 4
    frequency:   13.5599566532
  - # 5
    frequency:   13.5599566532
  - # 6
    frequency:   13.5943433157

- q-position: [    0.0500000,    0.0000000,    0.0500000 ]
  distance:    0.0183109
  band:
  - # 1
    frequency:    0.6794752843
  - # 2
    frequency:    0.6794752843
  - # 3
    frequency:    1.4776673015
  - # 4
    frequency:   13.5698099768
  - # 5
    frequency:   13.5698099768
  - # 6
    frequency:   13.6121081688

- q-position: [    0.0550000,    0.0000000,    0.0550000 ]
  distance:    0.0201420
  band:
  - # 1
    frequency:    0.7480727507
  - # 2
    frequency:    0.7480727507
  - # 3
    frequency:    1.6249599433
  - # 4
    frequency:   13.5803959376
  - # 5
    frequency:   13.5803959376
  - # 6
    frequency:   13.6313689442

- q-position: [    0.0600000,    0.0000000,    0.0600000 ]
  distance:    0.0219731
  band:
  - # 1
    frequency:    0.8168245465
  - # 2
    frequency:    0.8168245465
  - # 3
    frequency:    1.7720990277
  - # 4
    frequency:   13.5916304382
  - # 5
    frequency:   13.5916304382
  - # 6
    frequency:   13.6520199652

- q-position: [    0.0650000,    0.0000000,    0.0650000 ]
  distance:    0.0238042
  band:
  - # 1
    frequency:    0.8857311350
  - # 2
    frequency:    0.8857311350
  - # 3
    frequency:    1.9190626267
  - # 4
    frequency:   13.6034246335
  - # 5
    frequency:   13.6034246335
  - # 6
    frequency:   13.6739484312

- q-position: [    0.0700000,    0.0000000,    0.0700000 ]
  distance:    0.0256352
  band:
  - # 1
    frequency:    0.9547898231
  - # 2
    frequency:    0.9547898231
  - # 3
    frequency:    2.0658268902
  - # 4
    frequency:   13.6156857013
  - # 5
    frequency:   13.6156857013
  - # 6
    frequency:   13.6970351149

- q-position: [    0.0750000,    0.0000000,    0.0750000 ]
  distance:    0.0274663
  band:
  - # 1
    frequency:    1.0239946323
  - # 2
    frequency:    1.0239946323
  - # 3
    frequency:    2.2123659498
  - # 4
    frequency:   13.6283176328
  - # 5
    frequency:   13.6283176328
  - # 6
    frequency:   13.7211550805

- q-position: [    0.0800000,    0.0000000,    0.0800000 ]
  distance:    0.0292974
  band:
  - # 1
    frequency:    1.0933361906
  - # 2
    frequency:    1.0933361906
  - # 3
    frequency:    2.3586518366
  - # 4
    frequency:   13.6412220376
  - # 5
    frequency:   13.6412220376
  - # 6
    frequency:   13.7461784145

- q-position: [    0.0850000,    0.0000000,    0.0850000 ]
  distance:    0.0311285
  band:
  - # 1
    frequency:    1.1628016431
  - # 2
    frequency:    1.1628016431
  - # 3
    frequency:    2.5046544154
  - # 4
    frequency:   13.6542989511
  - # 5
    frequency:   13.6542989511
  - # 6
    frequency:   13.7719709624

- q-position: [    0.0900000,    0.0000000,    0.0900000 ]
  distance:    0.0329596
  band:
  - # 1
    frequency:    1.2323745795
  - # 2
    frequency:    1.2323745795
  - # 3
    frequency:    2.6503413335
  - # 4
    frequency:   13.6674476398
  - # 5
    frequency:   13.6674476398
  - # 6
    frequency:   13.7983950645

- q-position: [    0.0950000,    0.0000000,    0.0950000 ]
  distance:    0.0347907
  band:
  - # 1
    frequency:    1.3020349776
  - # 2
    frequency:    1.3020349776
  - # 3
    frequency:    2.7956779874
  - # 4
    frequency:   13.6805673948
  - # 5
    frequency:   13.6805673948
  - # 6
    frequency:   13.8253102838

- q-position: [    0.1000000,    0.0000000,    0.1000000 ]
  distance:    0.0366218
  band:
  - # 1
    frequency:    1.3717591608
  - # 2
    frequency:    1.3717591608
  - # 3
    frequency:    2.9406275061
  - # 4
    frequency:   13.6935583081
  - # 5
    frequency:   13.6935583081
  - # 6
    frequency:   13.8525741213

- q-position: [    0.1050000,    0.0000000,    0.1050000 ]
  distance:    0.0384529
  band:
  - # 1
    frequency:    1.4415197670
  - # 2
    frequency:    1.4415197670
  - # 3
    frequency:    3.0851507529
  - # 4
    frequency:   13.7063220243
  - # 5
    frequency:   13.7063220243
  - # 6
    frequency:   13.8800427119

- q-position: [    0.1100000,    0.0000000,    0.1100000 ]
  distance:    0.0402840
  band:
  - # 1
    frequency:    1.5112857293
  - # 2
    frequency:    1.5112857293
  - # 3
    frequency:    3.2292063447
  - # 4
    frequency:   13.7187624632
  - # 5
    frequency:   13.7187624632
  - # 6
    frequency:   13.9075714974

- q-position: [    0.1150000,    0.0000000,    0.1150000 ]
  distance:    0.0421150
  band:
  - # 1
    frequency:    1.5810222658
  - # 2
    frequency:    1.5810222658
  - # 3
    frequency:    3.3727506905
  - # 4
    frequency:   13.7307865068
  - # 5
    frequency:   13.7307865068
  - # 6
    frequency:   13.9350158721

- q-position: [    0.1200000,    0.0000000,    0.1200000 ]
  distance:    0.0439461
  band:
  - # 1
    frequency:    1.6506908784
  - # 2
    frequency:    1.6506908784
  - # 3
    frequency:    3.5157380488
  - # 4
    frequency:   13.7423046482
  - # 5
    frequency:   13.7423046482
  - # 6
    frequency:   13.9622317972

- q-position: [    0.1250000,    0.0000000,    0.1250000 ]
  distance:    0.0457772
  band:
  - # 1
    frequency:    1.7202493602
  - # 2
    frequency:    1.7202493602
  - # 3
    frequency:    3.6581206035
  - # 4
    frequency:   13.7532315961
  - # 5
    frequency:   13.7532315961
  - # 6
    frequency:   13.9890763816

- q-position: [    0.1300000,    0.0000000,    0.1300000 ]
  distance:    0.0476083
  band:
  - # 1
    frequency:    1.7896518099
  - # 2
    frequency:    1.7896518099
  - # 3
    frequency:    3.7998485596
  - # 4
    frequency:   13.7634868345
  - # 5
    frequency:   13.7634868345
  - # 6
    frequency:   14.0154084271

- q-position: [    0.1350000,    0.0000000,    0.1350000 ]
  distance:    0.0494394
  band:
  - # 1
    frequency:    1.8588486551
  - # 2
    frequency:    1.8588486551
  - # 3
    frequency:    3.9408702576
  - # 4
    frequency:   13.7729951328
  - # 5
    frequency:   13.7729951328
  - # 6
    frequency:   14.0410889354

- q-position: [    0.1400000,    0.0000000,    0.1400000 ]
  distance:    0.0512705
  band:
  - # 1
    frequency:    1.9277866836
  - # 2
    frequency:    1.9277866836
  - # 3
    frequency:    4.0811323071
  - # 4
    frequency:   13.7816870052
  - # 5
    frequency:   13.7816870052
  - # 6
    frequency:   14.0659815773

- q-position: [    0.1450000,    0.0000000,    0.1450000 ]
  distance:    0.0531016
  band:
  - # 1
    frequency:    1.9964090835
  - # 2
    frequency:    1.9964090835
  - # 3
    frequency:    4.2205797389
  - # 4
    frequency:   13.7894991178
  - # 5
    frequency:   13.7894991178
  - # 6
    frequency:   14.0899531224

- q-position: [    0.1500000,    0.0000000,    0.1500000 ]
  distance:    0.0549327
  band:
  - # 1
    frequency:    2.0646554931
  - # 2
    frequency:    2.0646554931
  - # 3
    frequency:    4.3591561758
  - # 4
    frequency:   13.7963746421
  - # 5
    frequency:   13.7963746421
  - # 6
    frequency:   14.1128738296

- q-position: [    0.1550000,    0.0000000,    0.1550000 ]
  distance:    0.0567638
  band:
  - # 1
    frequency:    2.1324620626
  - # 2
    frequency:    2.1324620626
  - # 3
    frequency:    4.4968040215
  - # 4
    frequency:   13.8022635546
  - # 5
    frequency:   13.8022635546
  - # 6
    frequency:   14.1346177992

- q-position: [    0.1600000,    0.0000000,    0.1600000 ]
  distance:    0.0585948
  band:
  - # 1
    frequency:    2.1997615270
  - # 2
    frequency:    2.1997615270
  - # 3
    frequency:    4.6334646667
  - # 4
    frequency:   13.8071228811
  - # 5
    frequency:   13.8071228811
  - # 6
    frequency:   14.1550632868

- q-position: [    0.1650000,    0.0000000,    0.1650000 ]
  distance:    0.0604259
  band:
  - # 1
    frequency:    2.2664832936
  - # 2
    frequency:    2.2664832936
  - # 3
    frequency:    4.7690787125
  - # 4
    frequency:   13.8109168874
  - # 5
    frequency:   13.8109168874
  - # 6
    frequency:   14.1740929811

- q-position: [    0.1700000,    0.0000000,    0.1700000 ]
  distance:    0.0622570
  band:
  - # 1
    frequency:    2.3325535448
  - # 2
    frequency:    2.3325535448
  - # 3
    frequency:    4.9035862092
  - # 4
    frequency:   13.8136172150
  - # 5
    frequency:   13.8136172150
  - # 6
    frequency:   14.1915942452

- q-position: [    0.1750000,    0.0000000,    0.1750000 ]
  distance:    0.0640881
  band:
  - # 1
    frequency:    2.3978953578
  - # 2
    frequency:    2.3978953578
  - # 3
    frequency:    5.0369269111
  - # 4
    frequency:   13.8152029640
  - # 5
    frequency:   13.8152029640
  - # 6
    frequency:   14.2074593260

- q-position: [    0.1800000,    0.0000000,    0.1800000 ]
  distance:    0.0659192
  band:
  - # 1
    frequency:    2.4624288440
  - # 2
    frequency:    2.4624288440
  - # 3
    frequency:    5.1690405456
  - # 4
    frequency:   13.8156607225
  - # 5
    frequency:   13.8156607225
  - # 6
    frequency:   14.2215855302

- q-position: [    0.1850000,    0.0000000,    0.1850000 ]
  distance:    0.0677503
  band:
  - # 1
    frequency:    2.5260713084
  - # 2
    frequency:    2.5260713084
  - # 3
    frequency:    5.2998670947
  - # 4
    frequency:   13.8149845444
  - # 5
    frequency:   13.8149845444
  - # 6
    frequency:   14.2338753720

- q-position: [    0.1900000,    0.0000000,    0.1900000 ]
  distance:    0.0695814
  band:
  - # 1
    frequency:    2.5887374319
  - # 2
    frequency:    2.5887374319
  - # 3
    frequency:    5.4293470901
  - # 4
    frequency:   13.8131758762
  - # 5
    frequency:   13.8131758762
  - # 6
    frequency:   14.2442366929

- q-position: [    0.1950000,    0.0000000,    0.1950000 ]
  distance:    0.0714125
  band:
  - # 1
    frequency:    2.6503394783
  - # 2
    frequency:    2.6503394783
  - # 3
    frequency:    5.5574219172
  - # 4
    frequency:   13.8102434353
  - # 5
    frequency:   13.8102434353
  - # 6
    frequency:   14.2525827562

- q-position: [    0.2000000,    0.0000000,    0.2000000 ]
  distance:    0.0732436
  band:
  - # 1
    frequency:    2.7107875262
  - # 2
    frequency:    2.7107875262
  - # 3
    frequency:    5.6840341308
  - # 4
    frequency:   13.8062030389
  - # 5
    frequency:   13.8062030389
  - # 6
    frequency:   14.2588323194

- q-position: [    0.2050000,    0.0000000,    0.2050000 ]
  distance:    0.0750746
  band:
  - # 1
    frequency:    2.7699897295
  - # 2
    frequency:    2.7699897295
  - # 3
    frequency:    5.8091277765
  - # 4
    frequency:   13.8010773881
  - # 5
    frequency:   13.8010773881
  - # 6
    frequency:   14.2629096853

- q-position: [    0.2100000,    0.0000000,    0.2100000 ]
  distance:    0.0769057
  band:
  - # 1
    frequency:    2.8278526059
  - # 2
    frequency:    2.8278526059
  - # 3
    frequency:    5.9326487206
  - # 4
    frequency:   13.7948958063
  - # 5
    frequency:   13.7948958063
  - # 6
    frequency:   14.2647447357

- q-position: [    0.2150000,    0.0000000,    0.2150000 ]
  distance:    0.0787368
  band:
  - # 1
    frequency:    2.8842813559
  - # 2
    frequency:    2.8842813559
  - # 3
    frequency:    6.0545449832
  - # 4
    frequency:   13.7876939351
  - # 5
    frequency:   13.7876939351
  - # 6
    frequency:   14.2642729490

- q-position: [    0.2200000,    0.0000000,    0.2200000 ]
  distance:    0.0805679
  band:
  - # 1
    frequency:    2.9391802123
  - # 2
    frequency:    2.9391802123
  - # 3
    frequency:    6.1747670749
  - # 4
    frequency:   13.7795133895
  - # 5
    frequency:   13.7795133895
  - # 6
    frequency:   14.2614354043

- q-position: [    0.2250000,    0.0000000,    0.2250000 ]
  distance:    0.0823990
  band:
  - # 1
    frequency:    2.9924528218
  - # 2
    frequency:    2.9924528218
  - # 3
    frequency:    6.2932683347
  - # 4
    frequency:   13.7704013748
  - # 5
    frequency:   13.7704013748
  - # 6
    frequency:   14.2561787735

- q-position: [    0.2300000,    0.0000000,    0.2300000 ]
  distance:    0.0842301
  band:
  - # 1
    frequency:    3.0440026581
  - # 2
    frequency:    3.0440026581
  - # 3
    frequency:    6.4100052669
  - # 4
    frequency:   13.7604102664
  - # 5
    frequency:   13.7604102664
  - # 6
    frequency:   14.2484553049

- q-position: [    0.2350000,    0.0000000,    0.2350000 ]
  distance:    0.0860612
  band:
  - # 1
    frequency:    3.0937334673
  - # 2
    frequency:    3.0937334673
  - # 3
    frequency:    6.5249378746
  - # 4
    frequency:   13.7495971568
  - # 5
    frequency:   13.7495971568
  - # 6
    frequency:   14.2382227982

- q-position: [    0.2400000,    0.0000000,    0.2400000 ]
  distance:    0.0878923
  band:
  - # 1
    frequency:    3.1415497455
  - # 2
    frequency:    3.1415497455
  - # 3
    frequency:    6.6380299892
  - # 4
    frequency:   13.7380233710
  - # 5
    frequency:   13.7380233710
  - # 6
    frequency:   14.2254445742

- q-position: [    0.2450000,    0.0000000,    0.2450000 ]
  distance:    0.0897233
  band:
  - # 1
    frequency:    3.1873572466
  - # 2
    frequency:    3.1873572466
  - # 3
    frequency:    6.7492495917
  - # 4
    frequency:   13.7257539544
  - # 5
    frequency:   13.7257539544
  - # 6
    frequency:   14.2100894397

- q-position: [    0.2500000,    0.0000000,    0.2500000 ]
  distance:    0.0915544
  band:
  - # 1
    frequency:    3.2310635207
  - # 2
    frequency:    3.2310635207
  - # 3
    frequency:    6.8585691250
  - # 4
    frequency:   13.7128571365
  - # 5
    frequency:   13.7128571365
  - # 6
    frequency:   14.1921316499

- q-position: [    0.2550000,    0.0000000,    0.2550000 ]
  distance:    0.0933855
  band:
  - # 1
    frequency:    3.2725784807
  - # 2
    frequency:    3.2725784807
  - # 3
    frequency:    6.9659657938
  - # 4
    frequency:   13.6994037725
  - # 5
    frequency:   13.6994037725
  - # 6
    frequency:   14.1715508682

- q-position: [    0.2600000,    0.0000000,    0.2600000 ]
  distance:    0.0952166
  band:
  - # 1
    frequency:    3.3118149946
  - # 2
    frequency:    3.3118149946
  - # 3
    frequency:    7.0714218508
  - # 4
    frequency:   13.6854667695
  - # 5
    frequency:   13.6854667695
  - # 6
    frequency:   14.1483321264

- q-position: [    0.2650000,    0.0000000,    0.2650000 ]
  distance:    0.0970477
  band:
  - # 1
    frequency:    3.3486895021
  - # 2
    frequency:    3.3486895021
  - # 3
    frequency:    7.1749248657
  - # 4
    frequency:   13.6711204991
  - # 5
    frequency:   13.6711204991
  - # 6
    frequency:   14.1224657834

- q-position: [    0.2700000,    0.0000000,    0.2700000 ]
  distance:    0.0988788
  band:
  - # 1
    frequency:    3.3831226511
  - # 2
    frequency:    3.3831226511
  - # 3
    frequency:    7.2764679751
  - # 4
    frequency:   13.6564402023
  - # 5
    frequency:   13.6564402023
  - # 6
    frequency:   14.0939474856

- q-position: [    0.2750000,    0.0000000,    0.2750000 ]
  distance:    0.1007099
  band:
  - # 1
    frequency:    3.4150399516
  - # 2
    frequency:    3.4150399516
  - # 3
    frequency:    7.3760501105
  - # 4
    frequency:   13.6415013915
  - # 5
    frequency:   13.6415013915
  - # 6
    frequency:   14.0627781279

- q-position: [    0.2800000,    0.0000000,    0.2800000 ]
  distance:    0.1025410
  band:
  - # 1
    frequency:    3.4443724416
  - # 2
    frequency:    3.4443724416
  - # 3
    frequency:    7.4736762020
  - # 4
    frequency:   13.6263792551
  - # 5
    frequency:   13.6263792551
  - # 6
    frequency:   14.0289638156

- q-position: [    0.2850000,    0.0000000,    0.2850000 ]
  distance:    0.1043721
  band:
  - # 1
    frequency:    3.4710573620
  - # 2
    frequency:    3.4710573620
  - # 3
    frequency:    7.5693573553
  - # 4
    frequency:   13.6111480696
  - # 5
    frequency:   13.6111480696
  - # 6
    frequency:   13.9925158274

- q-position: [    0.2900000,    0.0000000,    0.2900000 ]
  distance:    0.1062031
  band:
  - # 1
    frequency:    3.4950388341
  - # 2
    frequency:    3.4950388341
  - # 3
    frequency:    7.6631109985
  - # 4
    frequency:   13.5958806255
  - # 5
    frequency:   13.5958806255
  - # 6
    frequency:   13.9534505797

- q-position: [    0.2950000,    0.0000000,    0.2950000 ]
  distance:    0.1080342
  band:
  - # 1
    frequency:    3.5162685354
  - # 2
    frequency:    3.5162685354
  - # 3
    frequency:    7.7549609982
  - # 4
    frequency:   13.5806476733
  - # 5
    frequency:   13.5806476733
  - # 6
    frequency:   13.9117895908

- q-position: [    0.3000000,    0.0000000,    0.3000000 ]
  distance:    0.1098653
  band:
  - # 1
    frequency:    3.5347063676
  - # 2
    frequency:    3.5347063676
  - # 3
    frequency:    7.8449377403
  - # 4
    frequency:   13.5655173948
  - # 5
    frequency:   13.5655173948
  - # 6
    frequency:   13.8675594452

- q-position: [    0.3050000,    0.0000000,    0.3050000 ]
  distance:    0.1116964
  band:
  - # 1
    frequency:    3.5503211114
  - # 2
    frequency:    3.5503211114
  - # 3
    frequency:    7.9330781744
  - # 4
    frequency:   13.5505549058
  - # 5
    frequency:   13.5505549058
  - # 6
    frequency:   13.8207917566

- q-position: [    0.3100000,    0.0000000,    0.3100000 ]
  distance:    0.1135275
  band:
  - # 1
    frequency:    3.5630910616
  - # 2
    frequency:    3.5630910616
  - # 3
    frequency:    8.0194258195
  - # 4
    frequency:   13.5358217966
  - # 5
    frequency:   13.5358217966
  - # 6
    frequency:   13.7715231299

- q-position: [    0.3150000,    0.0000000,    0.3150000 ]
  distance:    0.1153586
  band:
  - # 1
    frequency:    3.5730046385
  - # 2
    frequency:    3.5730046385
  - # 3
    frequency:    8.1040307283
  - # 4
    frequency:   13.5213757147
  - # 5
    frequency:   13.5213757147
  - # 6
    frequency:   13.7197951184

- q-position: [    0.3200000,    0.0000000,    0.3200000 ]
  distance:    0.1171897
  band:
  - # 1
    frequency:    3.5800609674
  - # 2
    frequency:    3.5800609674
  - # 3
    frequency:    8.1869494094
  - # 4
    frequency:   13.5072699958
  - # 5
    frequency:   13.5072699958
  - # 6
    frequency:   13.6656541787

- q-position: [    0.3250000,    0.0000000,    0.3250000 ]
  distance:    0.1190208
  band:
  - # 1
    frequency:    3.5842704238
  - # 2
    frequency:    3.5842704238
  - # 3
    frequency:    8.2682447039
  - # 4
    frequency:   13.4935533462
  - # 5
    frequency:   13.4935533462
  - # 6
    frequency:   13.6091516181

- q-position: [    0.3300000,    0.0000000,    0.3300000 ]
  distance:    0.1208519
  band:
  - # 1
    frequency:    3.5856551361
  - # 2
    frequency:    3.5856551361
  - # 3
    frequency:    8.3479856173
  - # 4
    frequency:   13.4802695819
  - # 5
    frequency:   13.4802695819
  - # 6
    frequency:   13.5503435360

- q-position: [    0.3350000,    0.0000000,    0.3350000 ]
  distance:    0.1226829
  band:
  - # 1
    frequency:    3.5842494445
  - # 2
    frequency:    3.5842494445
  - # 3
    frequency:    8.4262471031
  - # 4
    frequency:   13.4674574257
  - # 5
    frequency:   13.4674574257
  - # 6
    frequency:   13.4892907558

- q-position: [    0.3400000,    0.0000000,    0.3400000 ]
  distance:    0.1245140
  band:
  - # 1
    frequency:    3.5801003093
  - # 2
    frequency:    3.5801003093
  - # 3
    frequency:    8.5031097996
  - # 4
    frequency:   13.4260587464
  - # 5
    frequency:   13.4551503646
  - # 6
    frequency:   13.4551503646

- q-position: [    0.3450000,    0.0000000,    0.3450000 ]
  distance:    0.1263451
  band:
  - # 1
    frequency:    3.5732676655
  - # 2
    frequency:    3.5732676655
  - # 3
    frequency:    8.5786597180
  - # 4
    frequency:   13.3607175316
  - # 5
    frequency:   13.4433765704
  - # 6
    frequency:   13.4433765704

- q-position: [    0.3500000,    0.0000000,    0.3500000 ]
  distance:    0.1281762
  band:
  - # 1
    frequency:    3.5638247210
  - # 2
    frequency:    3.5638247210
  - # 3
    frequency:    8.6529878826
  - # 4
    frequency:   13.2933415851
  - # 5
    frequency:   13.4321588797
  - # 6
    frequency:   13.4321588797

- q-position: [    0.3550000,    0.0000000,    0.3550000 ]
  distance:    0.1300073
  band:
  - # 1
    frequency:    3.5518581939
  - # 2
    frequency:    3.5518581939
  - # 3
    frequency:    8.7261899227
  - # 4
    frequency:   13.2240097102
  - # 5
    frequency:   13.4215148359
  - # 6
    frequency:   13.4215148359

- q-position: [    0.3600000,    0.0000000,    0.3600000 ]
  distance:    0.1318384
  band:
  - # 1
    frequency:    3.5374684864
  - # 2
    frequency:    3.5374684864
  - # 3
    frequency:    8.7983656190
  - # 4
    frequency:   13.1528049014
  - # 5
    frequency:   13.4114567890
  - # 6
    frequency:   13.4114567890

- q-position: [    0.3650000,    0.0000000,    0.3650000 ]
  distance:    0.1336695
  band:
  - # 1
    frequency:    3.5207697915
  - # 2
    frequency:    3.5207697915
  - # 3
    frequency:    8.8696184036
  - # 4
    frequency:   13.0798141869
  - # 5
    frequency:   13.4019920508
  - # 6
    frequency:   13.4019920508

- q-position: [    0.3700000,    0.0000000,    0.3700000 ]
  distance:    0.1355006
  band:
  - # 1
    frequency:    3.5018901287
  - # 2
    frequency:    3.5018901287
  - # 3
    frequency:    8.9400548185
  - # 4
    frequency:   13.0051284498
  - # 5
    frequency:   13.3931231011
  - # 6
    frequency:   13.3931231011

- q-position: [    0.3750000,    0.0000000,    0.3750000 ]
  distance:    0.1373317
  band:
  - # 1
    frequency:    3.4809713042
  - # 2
    frequency:    3.4809713042
  - # 3
    frequency:    9.0097839323
  - # 4
    frequency:   12.9288422276
  - # 5
    frequency:   13.3848478414
  - # 6
    frequency:   13.3848478414

- q-position: [    0.3800000,    0.0000000,    0.3800000 ]
  distance:    0.1391627
  band:
  - # 1
    frequency:    3.4581687902
  - # 2
    frequency:    3.4581687902
  - # 3
    frequency:    9.0789167217
  - # 4
    frequency:   12.8510534863
  - # 5
    frequency:   13.3771598893
  - # 6
    frequency:   13.3771598893

- q-position: [    0.3850000,    0.0000000,    0.3850000 ]
  distance:    0.1409938
  band:
  - # 1
    frequency:    3.4336515149
  - # 2
    frequency:    3.4336515149
  - # 3
    frequency:    9.1475654184
  - # 4
    frequency:   12.7718633704
  - # 5
    frequency:   13.3700489091
  - # 6
    frequency:   13.3700489091

- q-position: [    0.3900000,    0.0000000,    0.3900000 ]
  distance:    0.1428249
  band:
  - # 1
    frequency:    3.4076015566
  - # 2
    frequency:    3.4076015566
  - # 3
    frequency:    9.2158428286
  - # 4
    frequency:   12.6913759259
  - # 5
    frequency:   13.3635009718
  - # 6
    frequency:   13.3635009718

- q-position: [    0.3950000,    0.0000000,    0.3950000 ]
  distance:    0.1446560
  band:
  - # 1
    frequency:    3.3802137292
  - # 2
    frequency:    3.3802137292
  - # 3
    frequency:    9.2838616293
  - # 4
    frequency:   12.6096977961
  - # 5
    frequency:   13.3574989393
  - # 6
    frequency:   13.3574989393

- q-position: [    0.4000000,    0.0000000,    0.4000000 ]
  distance:    0.1464871
  band:
  - # 1
    frequency:    3.3516950464
  - # 2
    frequency:    3.3516950464
  - # 3
    frequency:    9.3517336462
  - # 4
    frequency:   12.5269378896
  - # 5
    frequency:   13.3520228644
  - # 6
    frequency:   13.3520228644

- q-position: [    0.4050000,    0.0000000,    0.4050000 ]
  distance:    0.1483182
  band:
  - # 1
    frequency:    3.3222640496
  - # 2
    frequency:    3.3222640496
  - # 3
    frequency:    9.4195691207
  - # 4
    frequency:   12.4432070195
  - # 5
    frequency:   13.3470504043
  - # 6
    frequency:   13.3470504043

- q-position: [    0.4100000,    0.0000000,    0.4100000 ]
  distance:    0.1501493
  band:
  - # 1
    frequency:    3.2921499821
  - # 2
    frequency:    3.2921499821
  - # 3
    frequency:    9.4874759716
  - # 4
    frequency:   12.3586175152
  - # 5
    frequency:   13.3425572375
  - # 6
    frequency:   13.3425572375

- q-position: [    0.4150000,    0.0000000,    0.4150000 ]
  distance:    0.1519804
  band:
  - # 1
    frequency:    3.2615917887
  - # 2
    frequency:    3.2615917887
  - # 3
    frequency:    9.5555590593
  - # 4
    frequency:   12.2732828053
  - # 5
    frequency:   13.3385174822
  - # 6
    frequency:   13.3385174822

- q-position: [    0.4200000,    0.0000000,    0.4200000 ]
  distance:    0.1538115
  band:
  - # 1
    frequency:    3.2308369209
  - # 2
    frequency:    3.2308369209
  - # 3
    frequency:    9.6239194588
  - # 4
    frequency:   12.1873169734
  - # 5
    frequency:   13.3349041094
  - # 6
    frequency:   13.3349041094

- q-position: [    0.4250000,    0.0000000,    0.4250000 ]
  distance:    0.1556425
  band:
  - # 1
    frequency:    3.2001399260
  - # 2
    frequency:    3.2001399260
  - # 3
    frequency:    9.6926537491
  - # 4
    frequency:   12.1008342882
  - # 5
    frequency:   13.3316893467
  - # 6
    frequency:   13.3316893467

- q-position: [    0.4300000,    0.0000000,    0.4300000 ]
  distance:    0.1574736
  band:
  - # 1
    frequency:    3.1697607998
  - # 2
    frequency:    3.1697607998
  - # 3
    frequency:    9.7618533266
  - # 4
    frequency:   12.0139487084
  - # 5
    frequency:   13.3288450697
  - # 6
    frequency:   13.3288450697

- q-position: [    0.4350000,    0.0000000,    0.4350000 ]
  distance:    0.1593047
  band:
  - # 1
    frequency:    3.1399630859
  - # 2
    frequency:    3.1399630859
  - # 3
    frequency:    9.8316037497
  - # 4
    frequency:   11.9267733647
  - # 5
    frequency:   13.3263431755
  - # 6
    frequency:   13.3263431755

- q-position: [    0.4400000,    0.0000000,    0.4400000 ]
  distance:    0.1611358
  band:
  - # 1
    frequency:    3.1110117083
  - # 2
    frequency:    3.1110117083
  - # 3
    frequency:    9.9019841211
  - # 4
    frequency:   11.8394200222
  - # 5
    frequency:   13.3241559393
  - # 6
    frequency:   13.3241559393
