 128
   1   1
    12.128756814254071     0.000000000000000     0.000000000000000
     0.000000000000000    12.128756814254073     0.000000000000000
     0.000000000000000     0.000000000000000    12.128756814254064
   1   2
     0.338508502093914     0.055084192333784     0.055084192333784
    -0.055084192333784    -0.162707876148521    -0.160827910123008
    -0.055084192333784    -0.160827910123008    -0.162707876148521
   1   3
     0.064902030772231     0.000000000000000     0.000000000000000
     0.000000000000000    -0.087264880898367    -0.011218319424155
     0.000000000000000    -0.011218319424155    -0.087264880898367
   1   4
     0.338508502093914    -0.055084192333784    -0.055084192333784
     0.055084192333784    -0.162707876148521    -0.160827910123008
     0.055084192333784    -0.160827910123008    -0.162707876148521
   1   5
    -0.162707876148521    -0.055084192333784    -0.160827910123008
     0.055084192333784     0.338508502093914     0.055084192333784
    -0.160827910123008    -0.055084192333784    -0.162707876148521
   1   6
    -0.018326839277193     0.016170674918375    -0.017464074517377
     0.016170674918375    -0.018326839277193    -0.017464074517377
    -0.022846911599690    -0.022846911599690    -0.065310864742288
   1   7
    -0.018326839277193     0.017464074517377    -0.016170674918375
     0.022846911599690    -0.065310864742288    -0.022846911599690
    -0.016170674918375    -0.017464074517377    -0.018326839277193
   1   8
    -0.162707876148521     0.160827910123008     0.055084192333784
     0.160827910123008    -0.162707876148521    -0.055084192333784
    -0.055084192333784     0.055084192333784     0.338508502093914
   1   9
    -0.087264880898367     0.000000000000000    -0.011218319424155
     0.000000000000000     0.064902030772231     0.000000000000000
    -0.011218319424155     0.000000000000000    -0.087264880898367
   1  10
    -0.065310864742288     0.022846911599690    -0.022846911599690
     0.017464074517377    -0.018326839277193    -0.016170674918375
    -0.017464074517377    -0.016170674918375    -0.018326839277193
   1  11
    -0.087264880898367     0.011218319424155     0.000000000000000
     0.011218319424155    -0.087264880898366     0.000000000000000
     0.000000000000000     0.000000000000000     0.064902030772231
   1  12
    -0.065310864742288     0.017464074517377    -0.017464074517377
     0.022846911599690    -0.018326839277193    -0.016170674918375
    -0.022846911599690    -0.016170674918375    -0.018326839277193
   1  13
    -0.162707876148521     0.055084192333784    -0.160827910123008
    -0.055084192333784     0.338508502093914    -0.055084192333784
    -0.160827910123008     0.055084192333784    -0.162707876148521
   1  14
    -0.162707876148521     0.160827910123008    -0.055084192333784
     0.160827910123008    -0.162707876148521     0.055084192333784
     0.055084192333784    -0.055084192333784     0.338508502093914
   1  15
    -0.018326839277193     0.022846911599690    -0.016170674918375
     0.017464074517377    -0.065310864742288    -0.017464074517377
    -0.016170674918375    -0.022846911599690    -0.018326839277193
   1  16
    -0.018326839277193     0.016170674918375    -0.022846911599690
     0.016170674918375    -0.018326839277193    -0.022846911599690
    -0.017464074517377    -0.017464074517377    -0.065310864742288
   1  17
    -0.162707876148521    -0.160827910123008    -0.055084192333784
    -0.160827910123008    -0.162707876148521    -0.055084192333784
     0.055084192333784     0.055084192333784     0.338508502093914
   1  18
    -0.018326839277193    -0.017464074517377     0.016170674918375
    -0.022846911599690    -0.065310864742288    -0.022846911599690
     0.016170674918375    -0.017464074517377    -0.018326839277193
   1  19
    -0.018326839277193    -0.016170674918375     0.017464074517377
    -0.016170674918375    -0.018326839277193    -0.017464074517377
     0.022846911599690    -0.022846911599690    -0.065310864742288
   1  20
    -0.162707876148521     0.055084192333784     0.160827910123008
    -0.055084192333784     0.338508502093914     0.055084192333784
     0.160827910123008    -0.055084192333784    -0.162707876148521
   1  21
    -0.065310864742288    -0.022846911599690    -0.022846911599690
    -0.017464074517377    -0.018326839277193     0.016170674918375
    -0.017464074517377     0.016170674918375    -0.018326839277193
   1  22
    -0.040222002384049     0.000000000000000     0.000000000000000
     0.000000000000000    -0.040222002384050     0.000000000000000
     0.000000000000000     0.000000000000000    -0.040222002384050
   1  23
    -0.065310864742288     0.022846911599690     0.022846911599690
     0.017464074517377    -0.018326839277193     0.016170674918375
     0.017464074517377     0.016170674918375    -0.018326839277193
   1  24
    -0.101397958576297     0.000000000000000     0.000000000000000
     0.000000000000000    -0.069124463625099     0.000000000000000
     0.000000000000000     0.000000000000000    -0.069124463625099
   1  25
    -0.018326839277193    -0.016170674918375    -0.017464074517377
    -0.016170674918375    -0.018326839277193     0.017464074517377
    -0.022846911599690     0.022846911599690    -0.065310864742288
   1  26
    -0.018326839277193     0.017464074517377     0.016170674918375
     0.022846911599690    -0.065310864742288     0.022846911599690
     0.016170674918375     0.017464074517377    -0.018326839277193
   1  27
     0.015436360734955     0.002489535969161    -0.002612351992580
     0.002489535969161     0.015436360734955    -0.002612351992580
     0.002612351992579     0.002612351992579    -0.046331597453360
   1  28
     0.015436360734955     0.002612351992580    -0.002489535969161
    -0.002612351992579    -0.046331597453360     0.002612351992579
    -0.002489535969161    -0.002612351992580     0.015436360734955
   1  29
     0.338508502093914    -0.055084192333784     0.055084192333784
     0.055084192333784    -0.162707876148521     0.160827910123008
    -0.055084192333784     0.160827910123008    -0.162707876148521
   1  30
    -0.069124463625099     0.000000000000000     0.000000000000000
     0.000000000000000    -0.101397958576297     0.000000000000000
     0.000000000000000     0.000000000000000    -0.069124463625099
   1  31
    -0.046331597453360    -0.002612351992579     0.002612351992579
     0.002612351992580     0.015436360734955    -0.002489535969161
    -0.002612351992580    -0.002489535969161     0.015436360734955
   1  32
    -0.069124463625099     0.000000000000000     0.000000000000000
     0.000000000000000    -0.069124463625099     0.000000000000000
     0.000000000000000     0.000000000000000    -0.101397958576297
   1  33
    -0.087264880898367    -0.011218319424155     0.000000000000000
    -0.011218319424155    -0.087264880898366     0.000000000000000
     0.000000000000000     0.000000000000000     0.064902030772231
   1  34
    -0.065310864742288    -0.022846911599690     0.022846911599690
    -0.017464074517377    -0.018326839277193    -0.016170674918375
     0.017464074517377    -0.016170674918375    -0.018326839277193
   1  35
    -0.087264880898367     0.000000000000000     0.011218319424155
     0.000000000000000     0.064902030772231     0.000000000000000
     0.011218319424155     0.000000000000000    -0.087264880898367
   1  36
    -0.065310864742288    -0.017464074517377     0.017464074517377
    -0.022846911599690    -0.018326839277193    -0.016170674918375
     0.022846911599690    -0.016170674918375    -0.018326839277193
   1  37
    -0.018326839277193    -0.017464074517377    -0.016170674918375
    -0.022846911599690    -0.065310864742288     0.022846911599690
    -0.016170674918375     0.017464074517377    -0.018326839277193
   1  38
    -0.018326839277193     0.016170674918375     0.017464074517377
     0.016170674918375    -0.018326839277193     0.017464074517377
     0.022846911599690     0.022846911599690    -0.065310864742288
   1  39
     0.015436360734955    -0.002612351992580     0.002489535969161
     0.002612351992579    -0.046331597453360     0.002612351992579
     0.002489535969161    -0.002612351992580     0.015436360734955
   1  40
     0.015436360734955    -0.002489535969161     0.002612351992580
    -0.002489535969161     0.015436360734955    -0.002612351992580
    -0.002612351992579     0.002612351992579    -0.046331597453360
   1  41
     0.064902030772231     0.000000000000000     0.000000000000000
     0.000000000000000    -0.087264880898367     0.011218319424155
     0.000000000000000     0.011218319424155    -0.087264880898367
   1  42
    -0.046331597453360     0.002612351992579     0.002612351992579
    -0.002612351992580     0.015436360734955     0.002489535969161
    -0.002612351992580     0.002489535969161     0.015436360734955
   1  43
    -0.029732514039299     0.000000000000000     0.000000000000000
     0.000000000000000    -0.029732514039299     0.000000000000000
     0.000000000000000     0.000000000000000    -0.029732514039299
   1  44
    -0.046331597453360    -0.002612351992579    -0.002612351992579
     0.002612351992580     0.015436360734955     0.002489535969161
     0.002612351992580     0.002489535969161     0.015436360734955
   1  45
    -0.018326839277193    -0.022846911599690    -0.016170674918375
    -0.017464074517377    -0.065310864742288     0.017464074517377
    -0.016170674918375     0.022846911599690    -0.018326839277193
   1  46
     0.015436360734955    -0.002489535969161    -0.002612351992580
    -0.002489535969161     0.015436360734955     0.002612351992580
     0.002612351992579    -0.002612351992579    -0.046331597453360
   1  47
     0.015436360734955     0.002612351992580     0.002489535969161
    -0.002612351992579    -0.046331597453360    -0.002612351992579
     0.002489535969161     0.002612351992580     0.015436360734955
   1  48
    -0.018326839277193     0.016170674918375     0.022846911599690
     0.016170674918375    -0.018326839277193     0.022846911599690
     0.017464074517377     0.017464074517377    -0.065310864742288
   1  49
    -0.162707876148521    -0.160827910123008     0.055084192333784
    -0.160827910123008    -0.162707876148521     0.055084192333784
    -0.055084192333784    -0.055084192333784     0.338508502093914
   1  50
    -0.162707876148521    -0.055084192333784     0.160827910123008
     0.055084192333784     0.338508502093914    -0.055084192333784
     0.160827910123008     0.055084192333784    -0.162707876148521
   1  51
    -0.018326839277193    -0.016170674918375     0.022846911599690
    -0.016170674918375    -0.018326839277193    -0.022846911599690
     0.017464074517377    -0.017464074517377    -0.065310864742288
   1  52
    -0.018326839277193    -0.022846911599690     0.016170674918375
    -0.017464074517377    -0.065310864742288    -0.017464074517377
     0.016170674918375    -0.022846911599690    -0.018326839277193
   1  53
     0.338508502093914     0.055084192333784    -0.055084192333784
    -0.055084192333784    -0.162707876148521     0.160827910123008
     0.055084192333784     0.160827910123008    -0.162707876148521
   1  54
    -0.069124463625099     0.000000000000000     0.000000000000000
     0.000000000000000    -0.069124463625099     0.000000000000000
     0.000000000000000     0.000000000000000    -0.101397958576297
   1  55
    -0.046331597453360     0.002612351992579    -0.002612351992579
    -0.002612351992580     0.015436360734955    -0.002489535969161
     0.002612351992580    -0.002489535969161     0.015436360734955
   1  56
    -0.069124463625099     0.000000000000000     0.000000000000000
     0.000000000000000    -0.101397958576297     0.000000000000000
     0.000000000000000     0.000000000000000    -0.069124463625099
   1  57
    -0.018326839277193    -0.016170674918375    -0.022846911599690
    -0.016170674918375    -0.018326839277193     0.022846911599690
    -0.017464074517377     0.017464074517377    -0.065310864742288
   1  58
     0.015436360734955    -0.002612351992580    -0.002489535969161
     0.002612351992579    -0.046331597453360    -0.002612351992579
    -0.002489535969161     0.002612351992580     0.015436360734955
   1  59
     0.015436360734955     0.002489535969161     0.002612351992580
     0.002489535969161     0.015436360734955     0.002612351992580
    -0.002612351992579    -0.002612351992579    -0.046331597453360
   1  60
    -0.018326839277193     0.022846911599690     0.016170674918375
     0.017464074517377    -0.065310864742288     0.017464074517377
     0.016170674918375     0.022846911599690    -0.018326839277193
   1  61
    -0.065310864742288    -0.017464074517377    -0.017464074517377
    -0.022846911599690    -0.018326839277193     0.016170674918375
    -0.022846911599690     0.016170674918375    -0.018326839277193
   1  62
    -0.101397958576297     0.000000000000000     0.000000000000000
     0.000000000000000    -0.069124463625099     0.000000000000000
     0.000000000000000     0.000000000000000    -0.069124463625099
   1  63
    -0.065310864742288     0.017464074517377     0.017464074517377
     0.022846911599690    -0.018326839277193     0.016170674918375
     0.022846911599690     0.016170674918375    -0.018326839277193
   1  64
    -0.040222002384050     0.000000000000000     0.000000000000000
     0.000000000000000    -0.040222002384049     0.000000000000000
     0.000000000000000     0.000000000000000    -0.040222002384050
   1  65
    -0.001205447857620    -0.008050775471104    -0.008050775471104
    -0.008050775471104    -0.001205447857620    -0.008050775471104
    -0.008050775471105    -0.008050775471104    -0.001205447857620
   1  66
     0.068848164554566     0.029182739874176     0.029182739874176
     0.029182739874176     0.062206493926595     0.001131174495007
     0.029182739874176     0.001131174495007     0.062206493926595
   1  67
     0.068848164554566    -0.029182739874176    -0.029182739874176
    -0.029182739874176     0.062206493926595     0.001131174495007
    -0.029182739874176     0.001131174495007     0.062206493926595
   1  68
    -0.001205447857620     0.008050775471104     0.008050775471104
     0.008050775471104    -0.001205447857620    -0.008050775471104
     0.008050775471104    -0.008050775471104    -0.001205447857620
   1  69
     0.062206493926595     0.029182739874176     0.001131174495007
     0.029182739874176     0.068848164554566     0.029182739874176
     0.001131174495007     0.029182739874176     0.062206493926595
   1  70
    -2.992039303868402    -2.182687708693188     2.182687708693187
    -2.182687708693188    -2.992039303868404     2.182687708693187
     2.182687708693186     2.182687708693187    -2.992039303868402
   1  71
     0.062206493926595    -0.001131174495007    -0.029182739874176
    -0.001131174495007     0.062206493926595     0.029182739874176
    -0.029182739874176     0.029182739874176     0.068848164554566
   1  72
     0.024356112893085    -0.001575319258891     0.001575319258891
    -0.001575319258891     0.020212957961685     0.007722512809838
     0.001575319258891     0.007722512809838     0.020212957961685
   1  73
     0.062206493926595    -0.029182739874176     0.001131174495007
    -0.029182739874176     0.068848164554566    -0.029182739874176
     0.001131174495007    -0.029182739874176     0.062206493926595
   1  74
     0.062206493926595    -0.001131174495007     0.029182739874176
    -0.001131174495007     0.062206493926595    -0.029182739874176
     0.029182739874176    -0.029182739874176     0.068848164554566
   1  75
     0.019056499924042    -0.002369685461447    -0.001862596511704
    -0.002369685461447     0.019056499924042    -0.001862596511704
    -0.001862596511701    -0.001862596511701     0.016961089370095
   1  76
     0.019056499924042     0.001862596511704     0.002369685461447
     0.001862596511701     0.016961089370095    -0.001862596511702
     0.002369685461447    -0.001862596511704     0.019056499924042
   1  77
    -0.001205447857620     0.008050775471105    -0.008050775471104
     0.008050775471104    -0.001205447857620     0.008050775471104
    -0.008050775471104     0.008050775471104    -0.001205447857620
   1  78
     0.020212957961685    -0.001575319258891     0.007722512809838
    -0.001575319258891     0.024356112893085     0.001575319258891
     0.007722512809838     0.001575319258891     0.020212957961685
   1  79
     0.016961089370095     0.001862596511701    -0.001862596511701
     0.001862596511704     0.019056499924042     0.002369685461447
    -0.001862596511704     0.002369685461447     0.019056499924042
   1  80
     0.020212957961685    -0.007722512809838     0.001575319258891
    -0.007722512809838     0.020212957961685     0.001575319258891
     0.001575319258891     0.001575319258891     0.024356112893085
   1  81
     0.062206493926595     0.001131174495007     0.029182739874176
     0.001131174495007     0.062206493926595     0.029182739874176
     0.029182739874176     0.029182739874176     0.068848164554566
   1  82
    -2.992039303868402     2.182687708693187    -2.182687708693187
     2.182687708693187    -2.992039303868403     2.182687708693187
    -2.182687708693186     2.182687708693186    -2.992039303868402
   1  83
     0.062206493926595    -0.029182739874176    -0.001131174495007
    -0.029182739874176     0.068848164554565     0.029182739874176
    -0.001131174495007     0.029182739874176     0.062206493926595
   1  84
     0.024356112893085     0.001575319258891    -0.001575319258891
     0.001575319258891     0.020212957961685     0.007722512809838
    -0.001575319258891     0.007722512809838     0.020212957961685
   1  85
    -2.992039303868404     2.182687708693187     2.182687708693188
     2.182687708693186    -2.992039303868401    -2.182687708693186
     2.182687708693188    -2.182687708693187    -2.992039303868402
   1  86
    -2.992039303868402    -2.182687708693187    -2.182687708693187
    -2.182687708693187    -2.992039303868403    -2.182687708693187
    -2.182687708693186    -2.182687708693186    -2.992039303868402
   1  87
    -0.093062033161524     0.033996222013916     0.033996222013916
     0.033996222013916     0.033336421939289    -0.037764809246337
     0.033996222013916    -0.037764809246337     0.033336421939289
   1  88
    -0.093062033161524    -0.033996222013916    -0.033996222013916
    -0.033996222013916     0.033336421939289    -0.037764809246337
    -0.033996222013916    -0.037764809246337     0.033336421939289
   1  89
     0.068848164554566    -0.029182739874176     0.029182739874176
    -0.029182739874176     0.062206493926595    -0.001131174495007
     0.029182739874176    -0.001131174495007     0.062206493926595
   1  90
     0.033336421939289     0.033996222013916    -0.037764809246337
     0.033996222013916    -0.093062033161524     0.033996222013916
    -0.037764809246337     0.033996222013916     0.033336421939289
   1  91
     0.064481675024545    -0.046753289447195     0.046753289447195
    -0.046753289447195     0.064481675024544     0.046753289447195
     0.046753289447195     0.046753289447195     0.064481675024545
   1  92
     0.033336421939289     0.037764809246337    -0.033996222013916
     0.037764809246337     0.033336421939289     0.033996222013916
    -0.033996222013916     0.033996222013916    -0.093062033161524
   1  93
     0.020212957961685     0.001575319258891     0.007722512809838
     0.001575319258891     0.024356112893085    -0.001575319258891
     0.007722512809838    -0.001575319258891     0.020212957961685
   1  94
     0.033336421939289    -0.033996222013916    -0.037764809246337
    -0.033996222013916    -0.093062033161524    -0.033996222013916
    -0.037764809246337    -0.033996222013916     0.033336421939289
   1  95
     0.033336421939289     0.037764809246337     0.033996222013916
     0.037764809246337     0.033336421939289    -0.033996222013916
     0.033996222013916    -0.033996222013916    -0.093062033161524
   1  96
     0.020212957961685    -0.007722512809838    -0.001575319258891
    -0.007722512809838     0.020212957961685    -0.001575319258891
    -0.001575319258891    -0.001575319258891     0.024356112893085
   1  97
     0.062206493926595     0.001131174495007    -0.029182739874176
     0.001131174495007     0.062206493926595    -0.029182739874176
    -0.029182739874176    -0.029182739874176     0.068848164554566
   1  98
     0.062206493926595     0.029182739874176    -0.001131174495007
     0.029182739874176     0.068848164554565    -0.029182739874176
    -0.001131174495007    -0.029182739874176     0.062206493926595
   1  99
     0.019056499924042    -0.001862596511701    -0.002369685461447
    -0.001862596511704     0.016961089370095    -0.001862596511704
    -0.002369685461447    -0.001862596511701     0.019056499924042
   1 100
     0.019056499924042     0.002369685461447     0.001862596511704
     0.002369685461447     0.019056499924042    -0.001862596511704
     0.001862596511701    -0.001862596511701     0.016961089370095
   1 101
     0.068848164554566     0.029182739874176    -0.029182739874176
     0.029182739874176     0.062206493926595    -0.001131174495007
    -0.029182739874176    -0.001131174495007     0.062206493926595
   1 102
     0.033336421939289    -0.037764809246337     0.033996222013916
    -0.037764809246337     0.033336421939289     0.033996222013916
     0.033996222013916     0.033996222013916    -0.093062033161524
   1 103
     0.064481675024545     0.046753289447195    -0.046753289447195
     0.046753289447195     0.064481675024544     0.046753289447195
    -0.046753289447195     0.046753289447195     0.064481675024545
   1 104
     0.033336421939289    -0.033996222013916     0.037764809246337
    -0.033996222013916    -0.093062033161524     0.033996222013916
     0.037764809246337     0.033996222013916     0.033336421939289
   1 105
     0.016961089370095    -0.001862596511704    -0.001862596511704
    -0.001862596511701     0.019056499924042    -0.002369685461447
    -0.001862596511701    -0.002369685461447     0.019056499924042
   1 106
     0.064481675024544     0.046753289447195     0.046753289447195
     0.046753289447195     0.064481675024545    -0.046753289447195
     0.046753289447195    -0.046753289447195     0.064481675024545
   1 107
     0.064481675024545    -0.046753289447195    -0.046753289447195
    -0.046753289447195     0.064481675024544    -0.046753289447195
    -0.046753289447195    -0.046753289447195     0.064481675024545
   1 108
     0.016961089370095     0.001862596511704     0.001862596511704
     0.001862596511701     0.019056499924042    -0.002369685461447
     0.001862596511701    -0.002369685461447     0.019056499924042
   1 109
     0.019056499924042     0.002369685461447    -0.001862596511704
     0.002369685461447     0.019056499924042     0.001862596511704
    -0.001862596511701     0.001862596511701     0.016961089370095
   1 110
    -0.093062033161524    -0.033996222013916     0.033996222013916
    -0.033996222013916     0.033336421939289     0.037764809246337
     0.033996222013916     0.037764809246337     0.033336421939289
   1 111
     0.019056499924042     0.001862596511704    -0.002369685461447
     0.001862596511701     0.016961089370095     0.001862596511701
    -0.002369685461447     0.001862596511704     0.019056499924042
   1 112
     0.018322442885793    -0.006783518555342     0.006783518555342
    -0.006783518555342     0.018322442885793     0.006783518555343
     0.006783518555342     0.006783518555342     0.018322442885793
   1 113
    -0.001205447857620    -0.008050775471104     0.008050775471104
    -0.008050775471104    -0.001205447857620     0.008050775471104
     0.008050775471105     0.008050775471104    -0.001205447857620
   1 114
     0.020212957961685     0.007722512809838    -0.001575319258891
     0.007722512809838     0.020212957961685     0.001575319258891
    -0.001575319258891     0.001575319258891     0.024356112893085
   1 115
     0.016961089370095    -0.001862596511702     0.001862596511701
    -0.001862596511704     0.019056499924042     0.002369685461447
     0.001862596511704     0.002369685461447     0.019056499924042
   1 116
     0.020212957961685     0.001575319258891    -0.007722512809838
     0.001575319258891     0.024356112893085     0.001575319258891
    -0.007722512809838     0.001575319258891     0.020212957961685
   1 117
     0.020212957961685     0.007722512809838     0.001575319258891
     0.007722512809838     0.020212957961685    -0.001575319258891
     0.001575319258891    -0.001575319258891     0.024356112893085
   1 118
     0.033336421939289    -0.037764809246337    -0.033996222013916
    -0.037764809246337     0.033336421939289    -0.033996222013916
    -0.033996222013916    -0.033996222013916    -0.093062033161524
   1 119
     0.033336421939289     0.033996222013916     0.037764809246337
     0.033996222013916    -0.093062033161524    -0.033996222013916
     0.037764809246337    -0.033996222013916     0.033336421939289
   1 120
     0.020212957961685    -0.001575319258891    -0.007722512809838
    -0.001575319258891     0.024356112893085    -0.001575319258891
    -0.007722512809838    -0.001575319258891     0.020212957961685
   1 121
     0.019056499924042    -0.001862596511704     0.002369685461447
    -0.001862596511701     0.016961089370095     0.001862596511702
     0.002369685461447     0.001862596511704     0.019056499924042
   1 122
    -0.093062033161524     0.033996222013916    -0.033996222013916
     0.033996222013916     0.033336421939289     0.037764809246337
    -0.033996222013916     0.037764809246337     0.033336421939289
   1 123
     0.019056499924042    -0.002369685461447     0.001862596511704
    -0.002369685461447     0.019056499924042     0.001862596511704
     0.001862596511701     0.001862596511701     0.016961089370095
   1 124
     0.018322442885793     0.006783518555342    -0.006783518555342
     0.006783518555342     0.018322442885793     0.006783518555342
    -0.006783518555342     0.006783518555343     0.018322442885793
   1 125
     0.024356112893085     0.001575319258891     0.001575319258891
     0.001575319258891     0.020212957961685    -0.007722512809838
     0.001575319258891    -0.007722512809838     0.020212957961685
   1 126
     0.024356112893085    -0.001575319258891    -0.001575319258891
    -0.001575319258891     0.020212957961685    -0.007722512809838
    -0.001575319258891    -0.007722512809838     0.020212957961685
   1 127
     0.018322442885793     0.006783518555343     0.006783518555342
     0.006783518555342     0.018322442885793    -0.006783518555342
     0.006783518555342    -0.006783518555342     0.018322442885793
   1 128
     0.018322442885793    -0.006783518555342    -0.006783518555342
    -0.006783518555342     0.018322442885793    -0.006783518555342
    -0.006783518555342    -0.006783518555343     0.018322442885793
   2   1
     0.338508502093914    -0.055084192333784    -0.055084192333784
     0.055084192333784    -0.162707876148521    -0.160827910123008
     0.055084192333784    -0.160827910123008    -0.162707876148521
   2   2
    12.128756814254071     0.000000000000000     0.000000000000000
     0.000000000000000    12.128756814254071     0.000000000000000
     0.000000000000000     0.000000000000000    12.128756814254064
   2   3
     0.338508502093914     0.055084192333784     0.055084192333784
    -0.055084192333784    -0.162707876148521    -0.160827910123008
    -0.055084192333784    -0.160827910123008    -0.162707876148521
   2   4
     0.064902030772231     0.000000000000000     0.000000000000000
     0.000000000000000    -0.087264880898367    -0.011218319424155
     0.000000000000000    -0.011218319424155    -0.087264880898367
   2   5
    -0.162707876148521     0.160827910123008     0.055084192333784
     0.160827910123008    -0.162707876148521    -0.055084192333784
    -0.055084192333784     0.055084192333784     0.338508502093914
   2   6
    -0.162707876148521    -0.055084192333784    -0.160827910123008
     0.055084192333784     0.338508502093914     0.055084192333784
    -0.160827910123008    -0.055084192333784    -0.162707876148521
   2   7
    -0.018326839277193     0.016170674918375    -0.017464074517377
     0.016170674918375    -0.018326839277193    -0.017464074517377
    -0.022846911599690    -0.022846911599690    -0.065310864742288
   2   8
    -0.018326839277193     0.017464074517377    -0.016170674918375
     0.022846911599690    -0.065310864742288    -0.022846911599690
    -0.016170674918375    -0.017464074517377    -0.018326839277193
   2   9
    -0.065310864742288     0.017464074517377    -0.017464074517377
     0.022846911599690    -0.018326839277193    -0.016170674918375
    -0.022846911599690    -0.016170674918375    -0.018326839277193
   2  10
    -0.087264880898367     0.000000000000000    -0.011218319424155
     0.000000000000000     0.064902030772231     0.000000000000000
    -0.011218319424155     0.000000000000000    -0.087264880898367
   2  11
    -0.065310864742288     0.022846911599690    -0.022846911599690
     0.017464074517377    -0.018326839277193    -0.016170674918375
    -0.017464074517377    -0.016170674918375    -0.018326839277193
   2  12
    -0.087264880898367     0.011218319424155     0.000000000000000
     0.011218319424155    -0.087264880898366     0.000000000000000
     0.000000000000000     0.000000000000000     0.064902030772231
   2  13
    -0.018326839277193     0.016170674918375    -0.022846911599690
     0.016170674918375    -0.018326839277193    -0.022846911599690
    -0.017464074517377    -0.017464074517377    -0.065310864742288
   2  14
    -0.162707876148521     0.055084192333784    -0.160827910123008
    -0.055084192333784     0.338508502093914    -0.055084192333784
    -0.160827910123008     0.055084192333784    -0.162707876148521
   2  15
    -0.162707876148521     0.160827910123008    -0.055084192333784
     0.160827910123008    -0.162707876148521     0.055084192333784