14.400
   6.4956080   0.0000000   0.0000000   0.0000000   6.4956080   0.0000000   0.0000000   0.0000000   6.4956080
   2.5424140   0.0000000   0.0000000   0.0000000   2.5424140   0.0000000   0.0000000   0.0000000   2.5424140
   7.4240473   0.0000000   0.0000000   0.0000000   7.4240473   0.0000000   0.0000000   0.0000000   7.4240473
  -2.0301160   0.0000000   0.0000000   0.0000000  -2.0301160   0.0000000   0.0000000   0.0000000  -5.9062293
