 135
   1   1
     5.410077559526225     0.000000000000000     0.000000000000000
     0.000000000000000     5.410077559526226     0.000000000000000
     0.000000000000000     0.000000000000000     5.410077559526226
   1   2
    -1.001293034565973     0.000000000000000     0.000000000000000
     0.000000000000000     0.354290871748933     0.000000000000000
     0.000000000000000     0.000000000000000     0.354290871748933
   1   3
    -1.001293034565973     0.000000000000000     0.000000000000000
     0.000000000000000     0.354290871748933     0.000000000000000
     0.000000000000000     0.000000000000000     0.354290871748933
   1   4
     0.354290871748933     0.000000000000000     0.000000000000000
     0.000000000000000    -1.001293034565973     0.000000000000000
     0.000000000000000     0.000000000000000     0.354290871748933
   1   5
    -0.161900697399357    -0.123342699180603     0.000000000000000
    -0.123342699180604    -0.161900697399357     0.000000000000000
     0.000000000000000     0.000000000000000     0.135299067997816
   1   6
    -0.161900697399357     0.123342699180603     0.000000000000000
     0.123342699180604    -0.161900697399357     0.000000000000000
     0.000000000000000     0.000000000000000     0.135299067997816
   1   7
     0.354290871748933     0.000000000000000     0.000000000000000
     0.000000000000000    -1.001293034565973     0.000000000000000
     0.000000000000000     0.000000000000000     0.354290871748933
   1   8
    -0.161900697399357     0.123342699180604     0.000000000000000
     0.123342699180603    -0.161900697399357     0.000000000000000
     0.000000000000000     0.000000000000000     0.135299067997816
   1   9
    -0.161900697399357    -0.123342699180604     0.000000000000000
    -0.123342699180603    -0.161900697399357     0.000000000000000
     0.000000000000000     0.000000000000000     0.135299067997816
   1  10
     0.354290871748933     0.000000000000000     0.000000000000000
     0.000000000000000     0.354290871748933     0.000000000000000
     0.000000000000000     0.000000000000000    -1.001293034565973
   1  11
    -0.161900697399357     0.000000000000000    -0.123342699180604
     0.000000000000000     0.135299067997816     0.000000000000000
    -0.123342699180603     0.000000000000000    -0.161900697399357
   1  12
    -0.161900697399357     0.000000000000000     0.123342699180603
     0.000000000000000     0.135299067997816     0.000000000000000
     0.123342699180604     0.000000000000000    -0.161900697399357
   1  13
     0.135299067997816     0.000000000000000     0.000000000000000
     0.000000000000000    -0.161900697399357    -0.123342699180603
     0.000000000000000    -0.123342699180604    -0.161900697399357
   1  14
    -0.065534807621434    -0.028661211196979    -0.028661211196979
    -0.028661211196979    -0.065534807621434    -0.028661211196979
    -0.028661211196979    -0.028661211196979    -0.065534807621434
   1  15
    -0.065534807621434     0.028661211196979     0.028661211196979
     0.028661211196979    -0.065534807621434    -0.028661211196979
     0.028661211196979    -0.028661211196979    -0.065534807621434
   1  16
     0.135299067997816     0.000000000000000     0.000000000000000
     0.000000000000000    -0.161900697399357     0.123342699180603
     0.000000000000000     0.123342699180604    -0.161900697399357
   1  17
    -0.065534807621434     0.028661211196979    -0.028661211196979
     0.028661211196979    -0.065534807621434     0.028661211196979
    -0.028661211196979     0.028661211196979    -0.065534807621434
   1  18
    -0.065534807621434    -0.028661211196979     0.028661211196979
    -0.028661211196979    -0.065534807621434     0.028661211196979
     0.028661211196979     0.028661211196979    -0.065534807621434
   1  19
     0.354290871748933     0.000000000000000     0.000000000000000
     0.000000000000000     0.354290871748933     0.000000000000000
     0.000000000000000     0.000000000000000    -1.001293034565973
   1  20
    -0.161900697399357     0.000000000000000     0.123342699180604
     0.000000000000000     0.135299067997816     0.000000000000000
     0.123342699180603     0.000000000000000    -0.161900697399357
   1  21
    -0.161900697399357     0.000000000000000    -0.123342699180603
     0.000000000000000     0.135299067997816     0.000000000000000
    -0.123342699180604     0.000000000000000    -0.161900697399357
   1  22
     0.135299067997816     0.000000000000000     0.000000000000000
     0.000000000000000    -0.161900697399357     0.123342699180604
     0.000000000000000     0.123342699180603    -0.161900697399357
   1  23
    -0.065534807621434    -0.028661211196979     0.028661211196979
    -0.028661211196979    -0.065534807621434     0.028661211196979
     0.028661211196979     0.028661211196979    -0.065534807621434
   1  24
    -0.065534807621434     0.028661211196979    -0.028661211196979
     0.028661211196979    -0.065534807621434     0.028661211196979
    -0.028661211196979     0.028661211196979    -0.065534807621434
   1  25
     0.135299067997816     0.000000000000000     0.000000000000000
     0.000000000000000    -0.161900697399357    -0.123342699180603
     0.000000000000000    -0.123342699180604    -0.161900697399357
   1  26
    -0.065534807621434     0.028661211196979     0.028661211196979
     0.028661211196979    -0.065534807621434    -0.028661211196979
     0.028661211196979    -0.028661211196979    -0.065534807621434
   1  27
    -0.065534807621434    -0.028661211196979    -0.028661211196979
    -0.028661211196979    -0.065534807621434    -0.028661211196979
    -0.028661211196979    -0.028661211196979    -0.065534807621434
   1  28
    -0.105591015913359    -1.380678494875045    -1.380678494875046
    -1.380678494875046    -0.105591015913359    -1.380678494875045
    -1.380678494875047    -1.380678494875046    -0.105591015913358
   1  29
    -0.566869993546077     0.000000000000000     0.000000000000000
     0.000000000000000     0.085837153819406    -0.046679278787208
     0.000000000000000    -0.046679278787207     0.085837153819406
   1  30
    -0.105591015913358     1.380678494875046     1.380678494875047
     1.380678494875045    -0.105591015913359    -1.380678494875046
     1.380678494875046    -1.380678494875045    -0.105591015913359
   1  31
     0.085837153819406     0.000000000000000    -0.046679278787208
     0.000000000000000    -0.566869993546077     0.000000000000000
    -0.046679278787207     0.000000000000000     0.085837153819406
   1  32
    -0.183024148602917     0.000000000000000     0.000000000000000
     0.000000000000000    -0.183024148602917     0.000000000000000
     0.000000000000000     0.000000000000000     0.059496683305052
   1  33
     0.085837153819406     0.000000000000000     0.046679278787207
     0.000000000000000    -0.566869993546077     0.000000000000000
     0.046679278787208     0.000000000000000     0.085837153819406
   1  34
    -0.105591015913359     1.380678494875045    -1.380678494875046
     1.380678494875046    -0.105591015913358     1.380678494875047
    -1.380678494875045     1.380678494875046    -0.105591015913359
   1  35
    -0.566869993546077     0.000000000000000     0.000000000000000
     0.000000000000000     0.085837153819406     0.046679278787207
     0.000000000000000     0.046679278787208     0.085837153819406
   1  36
    -0.105591015913359    -1.380678494875045     1.380678494875046
    -1.380678494875046    -0.105591015913358     1.380678494875047
     1.380678494875045     1.380678494875046    -0.105591015913359
   1  37
     0.085837153819406    -0.046679278787208     0.000000000000000
    -0.046679278787207     0.085837153819406     0.000000000000000
     0.000000000000000     0.000000000000000    -0.566869993546077
   1  38
    -0.183024148602917     0.000000000000000     0.000000000000000
     0.000000000000000     0.059496683305052     0.000000000000000
     0.000000000000000     0.000000000000000    -0.183024148602917
   1  39
     0.085837153819406     0.046679278787207     0.000000000000000
     0.046679278787208     0.085837153819406     0.000000000000000
     0.000000000000000     0.000000000000000    -0.566869993546077
   1  40
     0.059496683305052     0.000000000000000     0.000000000000000
     0.000000000000000    -0.183024148602917     0.000000000000000
     0.000000000000000     0.000000000000000    -0.183024148602917
   1  41
    -0.109337570485158     0.000000000000000     0.000000000000000
     0.000000000000000    -0.109337570485158     0.000000000000000
     0.000000000000000     0.000000000000000    -0.109337570485158
   1  42
     0.059496683305052     0.000000000000000     0.000000000000000
     0.000000000000000    -0.183024148602917     0.000000000000000
     0.000000000000000     0.000000000000000    -0.183024148602917
   1  43
     0.085837153819406     0.046679278787208     0.000000000000000
     0.046679278787207     0.085837153819406     0.000000000000000
     0.000000000000000     0.000000000000000    -0.566869993546077
   1  44
    -0.183024148602917     0.000000000000000     0.000000000000000
     0.000000000000000     0.059496683305052     0.000000000000000
     0.000000000000000     0.000000000000000    -0.183024148602917
   1  45
     0.085837153819406    -0.046679278787208     0.000000000000000
    -0.046679278787207     0.085837153819406     0.000000000000000
     0.000000000000000     0.000000000000000    -0.566869993546077
   1  46
    -0.105591015913359    -1.380678494875045     1.380678494875046
    -1.380678494875046    -0.105591015913359     1.380678494875045
     1.380678494875047     1.380678494875046    -0.105591015913358
   1  47
    -0.566869993546077     0.000000000000000     0.000000000000000
     0.000000000000000     0.085837153819406     0.046679278787208
     0.000000000000000     0.046679278787207     0.085837153819406
   1  48
    -0.105591015913359     1.380678494875046    -1.380678494875045
     1.380678494875045    -0.105591015913359     1.380678494875046
    -1.380678494875046     1.380678494875047    -0.105591015913358
   1  49
     0.085837153819406     0.000000000000000     0.046679278787208
     0.000000000000000    -0.566869993546077     0.000000000000000
     0.046679278787207     0.000000000000000     0.085837153819406
   1  50
    -0.183024148602917     0.000000000000000     0.000000000000000
     0.000000000000000    -0.183024148602917     0.000000000000000
     0.000000000000000     0.000000000000000     0.059496683305052
   1  51
     0.085837153819406     0.000000000000000    -0.046679278787208
     0.000000000000000    -0.566869993546077     0.000000000000000
    -0.046679278787207     0.000000000000000     0.085837153819406
   1  52
    -0.105591015913359     1.380678494875045     1.380678494875046
     1.380678494875046    -0.105591015913359    -1.380678494875045
     1.380678494875047    -1.380678494875046    -0.105591015913358
   1  53
    -0.566869993546077     0.000000000000000     0.000000000000000
     0.000000000000000     0.085837153819406    -0.046679278787208
     0.000000000000000    -0.046679278787207     0.085837153819406
   1  54
    -0.105591015913359    -1.380678494875045    -1.380678494875046
    -1.380678494875046    -0.105591015913359    -1.380678494875045
    -1.380678494875047    -1.380678494875046    -0.105591015913358
   1  55
     0.014327827452929     0.495583765842554     0.000000000000000
     0.495583765842554     0.014327827452929     0.000000000000000
     0.000000000000000     0.000000000000000    -1.042550780448776
   1  56
     0.175871364424511     0.000000000000000     0.000000000000000
     0.000000000000000    -0.042330284389226     0.000000000000000
     0.000000000000000     0.000000000000000    -0.201286118292120
   1  57
     0.014327827452929    -0.495583765842554     0.000000000000000
    -0.495583765842554     0.014327827452929     0.000000000000000
     0.000000000000000     0.000000000000000    -1.042550780448776
   1  58
    -0.042330284389226     0.000000000000000     0.000000000000000
     0.000000000000000     0.175871364424511     0.000000000000000
     0.000000000000000     0.000000000000000    -0.201286118292120
   1  59
     0.081860148034473     0.000000000000000     0.000000000000000
     0.000000000000000     0.081860148034473     0.000000000000000
     0.000000000000000     0.000000000000000    -0.128143234016630
   1  60
    -0.042330284389226     0.000000000000000     0.000000000000000
     0.000000000000000     0.175871364424511     0.000000000000000
     0.000000000000000     0.000000000000000    -0.201286118292120
   1  61
     0.014327827452929    -0.495583765842554     0.000000000000000
    -0.495583765842554     0.014327827452929     0.000000000000000
     0.000000000000000     0.000000000000000    -1.042550780448776
   1  62
     0.175871364424511     0.000000000000000     0.000000000000000
     0.000000000000000    -0.042330284389226     0.000000000000000
     0.000000000000000     0.000000000000000    -0.201286118292120
   1  63
     0.014327827452929     0.495583765842554     0.000000000000000
     0.495583765842554     0.014327827452929     0.000000000000000
     0.000000000000000     0.000000000000000    -1.042550780448776
   1  64
    -0.059723712163330     0.115609324410135     0.267926829004916
     0.115609324410135    -0.059723712163329     0.267926829004917
     0.088544880474868     0.088544880474868     0.381218626622101
   1  65
     0.106771143501254     0.000000000000000     0.000000000000000
     0.000000000000000    -0.022013145489019     0.061007069842035
     0.000000000000000     0.011428351627084     0.102546282495788
   1  66
    -0.059723712163329    -0.115609324410135    -0.267926829004917
    -0.115609324410135    -0.059723712163330     0.267926829004916
    -0.088544880474868     0.088544880474868     0.381218626622101
   1  67
    -0.022013145489019     0.000000000000000     0.061007069842035
     0.000000000000000     0.106771143501254     0.000000000000000
     0.011428351627084     0.000000000000000     0.102546282495788
   1  68
     0.044856257476994     0.000000000000000     0.000000000000000
     0.000000000000000     0.044856257476994     0.000000000000000
     0.000000000000000     0.000000000000000     0.060269580415764
   1  69
    -0.022013145489019     0.000000000000000    -0.061007069842035
     0.000000000000000     0.106771143501254     0.000000000000000
    -0.011428351627084     0.000000000000000     0.102546282495788
   1  70
    -0.059723712163330    -0.115609324410135     0.267926829004916
    -0.115609324410135    -0.059723712163329    -0.267926829004917
     0.088544880474868    -0.088544880474868     0.381218626622101
   1  71
     0.106771143501254     0.000000000000000     0.000000000000000
     0.000000000000000    -0.022013145489019    -0.061007069842035
     0.000000000000000    -0.011428351627084     0.102546282495788
   1  72
    -0.059723712163330     0.115609324410135    -0.267926829004916
     0.115609324410135    -0.059723712163329    -0.267926829004917
    -0.088544880474868    -0.088544880474868     0.381218626622101
   1  73
    -0.059723712163330     0.115609324410135    -0.267926829004916
     0.115609324410135    -0.059723712163329    -0.267926829004917
    -0.088544880474868    -0.088544880474868     0.381218626622101
   1  74
     0.106771143501254     0.000000000000000     0.000000000000000
     0.000000000000000    -0.022013145489019    -0.061007069842035
     0.000000000000000    -0.011428351627084     0.102546282495788
   1  75
    -0.059723712163329    -0.115609324410135     0.267926829004917
    -0.115609324410135    -0.059723712163330    -0.267926829004916
     0.088544880474868    -0.088544880474868     0.381218626622101
   1  76
    -0.022013145489019     0.000000000000000    -0.061007069842035
     0.000000000000000     0.106771143501254     0.000000000000000
    -0.011428351627084     0.000000000000000     0.102546282495788
   1  77
     0.044856257476994     0.000000000000000     0.000000000000000
     0.000000000000000     0.044856257476994     0.000000000000000
     0.000000000000000     0.000000000000000     0.060269580415764
   1  78
    -0.022013145489019     0.000000000000000     0.061007069842035
     0.000000000000000     0.106771143501254     0.000000000000000
     0.011428351627084     0.000000000000000     0.102546282495788
   1  79
    -0.059723712163330    -0.115609324410135    -0.267926829004916
    -0.115609324410135    -0.059723712163329     0.267926829004917
    -0.088544880474868     0.088544880474868     0.381218626622101
   1  80
     0.106771143501254     0.000000000000000     0.000000000000000
     0.000000000000000    -0.022013145489019     0.061007069842035
     0.000000000000000     0.011428351627084     0.102546282495788
   1  81
    -0.059723712163330     0.115609324410135     0.267926829004916
     0.115609324410135    -0.059723712163329     0.267926829004917
     0.088544880474868     0.088544880474868     0.381218626622101
   1  82
     0.014327827452929     0.000000000000000     0.495583765842554
     0.000000000000000    -1.042550780448776     0.000000000000000
     0.495583765842554     0.000000000000000     0.014327827452929
   1  83
     0.175871364424511     0.000000000000000     0.000000000000000
     0.000000000000000    -0.201286118292120     0.000000000000000
     0.000000000000000     0.000000000000000    -0.042330284389226
   1  84
     0.014327827452929     0.000000000000000    -0.495583765842554
     0.000000000000000    -1.042550780448776     0.000000000000000
    -0.495583765842554     0.000000000000000     0.014327827452929
   1  85
    -0.059723712163329     0.267926829004917     0.115609324410135
     0.088544880474868     0.381218626622101     0.088544880474868
     0.115609324410135     0.267926829004916    -0.059723712163330
   1  86
     0.106771143501254     0.000000000000000     0.000000000000000
     0.000000000000000     0.102546282495788     0.011428351627084
     0.000000000000000     0.061007069842035    -0.022013145489019
   1  87
    -0.059723712163329    -0.267926829004917    -0.115609324410135
    -0.088544880474868     0.381218626622101     0.088544880474868
    -0.115609324410135     0.267926829004916    -0.059723712163330
   1  88
    -0.059723712163329    -0.267926829004917     0.115609324410135
    -0.088544880474868     0.381218626622101    -0.088544880474868
     0.115609324410135    -0.267926829004916    -0.059723712163330
   1  89
     0.106771143501254     0.000000000000000     0.000000000000000
     0.000000000000000     0.102546282495788    -0.011428351627084
     0.000000000000000    -0.061007069842035    -0.022013145489019
   1  90
    -0.059723712163329     0.267926829004917    -0.115609324410135
     0.088544880474868     0.381218626622101    -0.088544880474868
    -0.115609324410135    -0.267926829004916    -0.059723712163330
   1  91
    -0.042330284389226     0.000000000000000     0.000000000000000
     0.000000000000000    -0.201286118292120     0.000000000000000
     0.000000000000000     0.000000000000000     0.175871364424511
   1  92
     0.081860148034473     0.000000000000000     0.000000000000000
     0.000000000000000    -0.128143234016630     0.000000000000000
     0.000000000000000     0.000000000000000     0.081860148034473
   1  93
    -0.042330284389226     0.000000000000000     0.000000000000000
     0.000000000000000    -0.201286118292120     0.000000000000000
     0.000000000000000     0.000000000000000     0.175871364424511
   1  94
    -0.022013145489019     0.061007069842035     0.000000000000000
     0.011428351627084     0.102546282495788     0.000000000000000
     0.000000000000000     0.000000000000000     0.106771143501254
   1  95
     0.044856257476994     0.000000000000000     0.000000000000000
     0.000000000000000     0.060269580415764     0.000000000000000
     0.000000000000000     0.000000000000000     0.044856257476994
   1  96
    -0.022013145489019    -0.061007069842035     0.000000000000000
    -0.011428351627084     0.102546282495788     0.000000000000000
     0.000000000000000     0.000000000000000     0.106771143501254
   1  97
    -0.022013145489019    -0.061007069842035     0.000000000000000
    -0.011428351627084     0.102546282495788     0.000000000000000
     0.000000000000000     0.000000000000000     0.106771143501254
   1  98
     0.044856257476994     0.000000000000000     0.000000000000000
     0.000000000000000     0.060269580415764     0.000000000000000
     0.000000000000000     0.000000000000000     0.044856257476994
   1  99
    -0.022013145489019     0.061007069842035     0.000000000000000
     0.011428351627084     0.102546282495788     0.000000000000000
     0.000000000000000     0.000000000000000     0.106771143501254
   1 100
     0.014327827452929     0.000000000000000    -0.495583765842554
     0.000000000000000    -1.042550780448776     0.000000000000000
    -0.495583765842554     0.000000000000000     0.014327827452929
   1 101
     0.175871364424511     0.000000000000000     0.000000000000000
     0.000000000000000    -0.201286118292120     0.000000000000000
     0.000000000000000     0.000000000000000    -0.042330284389226
   1 102
     0.014327827452929     0.000000000000000     0.495583765842554
     0.000000000000000    -1.042550780448776     0.000000000000000
     0.495583765842554     0.000000000000000     0.014327827452929
   1 103
    -0.059723712163330     0.267926829004916    -0.115609324410135
     0.088544880474868     0.381218626622101    -0.088544880474868
    -0.115609324410135    -0.267926829004917    -0.059723712163329
   1 104
     0.106771143501254     0.000000000000000     0.000000000000000
     0.000000000000000     0.102546282495788    -0.011428351627084
     0.000000000000000    -0.061007069842035    -0.022013145489019
   1 105
    -0.059723712163329    -0.267926829004917     0.115609324410135
    -0.088544880474868     0.381218626622101    -0.088544880474868
     0.115609324410135    -0.267926829004916    -0.059723712163330
   1 106
    -0.059723712163330    -0.267926829004916    -0.115609324410135
    -0.088544880474868     0.381218626622101     0.088544880474868
    -0.115609324410135     0.267926829004917    -0.059723712163329
   1 107
     0.106771143501254     0.000000000000000     0.000000000000000
     0.000000000000000     0.102546282495788     0.011428351627084
     0.000000000000000     0.061007069842035    -0.022013145489019
   1 108
    -0.059723712163329     0.267926829004917     0.115609324410135
     0.088544880474868     0.381218626622101     0.088544880474868
     0.115609324410135     0.267926829004916    -0.059723712163330
   1 109
    -1.042550780448776     0.000000000000000     0.000000000000000
     0.000000000000000     0.014327827452929     0.495583765842554
     0.000000000000000     0.495583765842554     0.014327827452929
   1 110
     0.381218626622101     0.088544880474868     0.088544880474868
     0.267926829004917    -0.059723712163329     0.115609324410135
     0.267926829004916     0.115609324410135    -0.059723712163330
   1 111
     0.381218626622101    -0.088544880474868    -0.088544880474868
    -0.267926829004917    -0.059723712163329     0.115609324410135
    -0.267926829004916     0.115609324410135    -0.059723712163330
   1 112
    -0.201286118292120     0.000000000000000     0.000000000000000
     0.000000000000000     0.175871364424511     0.000000000000000
     0.000000000000000     0.000000000000000    -0.042330284389226
   1 113
     0.102546282495788     0.000000000000000     0.011428351627084
     0.000000000000000     0.106771143501254     0.000000000000000
     0.061007069842035     0.000000000000000    -0.022013145489019
   1 114
     0.102546282495788     0.000000000000000    -0.011428351627084
     0.000000000000000     0.106771143501254     0.000000000000000
    -0.061007069842035     0.000000000000000    -0.022013145489019
   1 115
    -1.042550780448776     0.000000000000000     0.000000000000000
     0.000000000000000     0.014327827452929    -0.495583765842554
     0.000000000000000    -0.495583765842554     0.014327827452929
   1 116
     0.381218626622101    -0.088544880474868     0.088544880474868
    -0.267926829004917    -0.059723712163329    -0.115609324410135
     0.267926829004916    -0.115609324410135    -0.059723712163330
   1 117
     0.381218626622101     0.088544880474868    -0.088544880474868
     0.267926829004917    -0.059723712163329    -0.115609324410135
    -0.267926829004916    -0.115609324410135    -0.059723712163330
   1 118
    -0.201286118292120     0.000000000000000     0.000000000000000
     0.000000000000000    -0.042330284389226     0.000000000000000
     0.000000000000000     0.000000000000000     0.175871364424511
   1 119
     0.102546282495788     0.011428351627084     0.000000000000000
     0.061007069842035    -0.022013145489019     0.000000000000000
     0.000000000000000     0.000000000000000     0.106771143501254
   1 120
     0.102546282495788    -0.011428351627084     0.000000000000000
    -0.061007069842035    -0.022013145489019     0.000000000000000
     0.000000000000000     0.000000000000000     0.106771143501254
   1 121
    -0.128143234016630     0.000000000000000     0.000000000000000
     0.000000000000000     0.081860148034473     0.000000000000000
     0.000000000000000     0.000000000000000     0.081860148034473
   1 122
     0.060269580415764     0.000000000000000     0.000000000000000
     0.000000000000000     0.044856257476994     0.000000000000000
     0.000000000000000     0.000000000000000     0.044856257476994
   1 123
     0.060269580415764     0.000000000000000     0.000000000000000
     0.000000000000000     0.044856257476994     0.000000000000000
     0.000000000000000     0.000000000000000     0.044856257476994
   1 124
    -0.201286118292120     0.000000000000000     0.000000000000000
     0.000000000000000    -0.042330284389226     0.000000000000000
     0.000000000000000     0.000000000000000     0.175871364424511
   1 125
     0.102546282495788    -0.011428351627084     0.000000000000000
    -0.061007069842035    -0.022013145489019     0.000000000000000
     0.000000000000000     0.000000000000000     0.106771143501254
   1 126
     0.102546282495788     0.011428351627084     0.000000000000000
     0.061007069842035    -0.022013145489019     0.000000000000000
     0.000000000000000     0.000000000000000     0.106771143501254
   1 127
    -1.042550780448776     0.000000000000000     0.000000000000000
     0.000000000000000     0.014327827452929    -0.495583765842554
     0.000000000000000    -0.495583765842554     0.014327827452929
   1 128
     0.381218626622101     0.088544880474868    -0.088544880474868
     0.267926829004916    -0.059723712163330    -0.115609324410135
    -0.267926829004917    -0.115609324410135    -0.059723712163329
   1 129
     0.381218626622101    -0.088544880474868     0.088544880474868
    -0.267926829004916    -0.059723712163330    -0.115609324410135
     0.267926829004917    -0.115609324410135    -0.059723712163329
   1 130
    -0.201286118292120     0.000000000000000     0.000000000000000
     0.000000000000000     0.175871364424511     0.000000000000000
     0.000000000000000     0.000000000000000    -0.042330284389226
   1 131
     0.102546282495788     0.000000000000000    -0.011428351627084
     0.000000000000000     0.106771143501254     0.000000000000000
    -0.061007069842035     0.000000000000000    -0.022013145489019
   1 132
     0.102546282495788     0.000000000000000     0.011428351627084
     0.000000000000000     0.106771143501254     0.000000000000000
     0.061007069842035     0.000000000000000    -0.022013145489019
   1 133
    -1.042550780448776     0.000000000000000     0.000000000000000
     0.000000000000000     0.014327827452929     0.495583765842554
     0.000000000000000     0.495583765842554     0.014327827452929
   1 134
     0.381218626622101    -0.088544880474868    -0.088544880474868
    -0.267926829004917    -0.059723712163329     0.115609324410135
    -0.267926829004916     0.115609324410135    -0.059723712163330
   1 135
     0.381218626622101     0.088544880474868     0.088544880474868
     0.267926829004917    -0.059723712163329     0.115609324410135
     0.267926829004916     0.115609324410135    -0.059723712163330
   2   1
    -1.001293034565973     0.000000000000000     0.000000000000000
     0.000000000000000     0.354290871748933     0.000000000000000
     0.000000000000000     0.000000000000000     0.354290871748933
   2   2
     5.410077559526226     0.000000000000000     0.000000000000000
     0.000000000000000     5.410077559526225     0.000000000000000
     0.000000000000000     0.000000000000000     5.410077559526226
   2   3
    -1.001293034565973     0.000000000000000     0.000000000000000
     0.000000000000000     0.354290871748933     0.000000000000000
     0.000000000000000     0.000000000000000     0.354290871748933
   2   4
    -0.161900697399357     0.123342699180603     0.000000000000000
     0.123342699180604    -0.161900697399357     0.000000000000000
     0.000000000000000     0.000000000000000     0.135299067997816
   2   5
     0.354290871748933     0.000000000000000     0.000000000000000
     0.000000000000000    -1.001293034565973     0.000000000000000
     0.000000000000000     0.000000000000000     0.354290871748933
   2   6
    -0.161900697399357    -0.123342699180603     0.000000000000000
    -0.123342699180604    -0.161900697399357     0.000000000000000
     0.000000000000000     0.000000000000000     0.135299067997816
   2   7
    -0.161900697399357    -0.123342699180604     0.000000000000000
    -0.123342699180603    -0.161900697399357     0.000000000000000
     0.000000000000000     0.000000000000000     0.135299067997816
   2   8
     0.354290871748933     0.000000000000000     0.000000000000000
     0.000000000000000    -1.001293034565973     0.000000000000000