nqpoint: 404    
npath: 4      
segment_nqpoint:
- 101
- 101
- 101
- 101
reciprocal_lattice:
- [  -0.18310888,   0.18310888,   0.18310888 ] # a*
- [   0.18310888,  -0.18310888,   0.18310888 ] # b*
- [   0.18310888,   0.18310888,  -0.18310888 ] # c*
natom: 2      
lattice:
- [     0.000000000000000,     2.730615835179053,     2.730615835179053 ] # a
- [     2.730615835179053,     0.000000000000000,     2.730615835179053 ] # b
- [     2.730615835179053,     2.730615835179053,     0.000000000000000 ] # c
points:
- symbol: Si # 1
  coordinates: [  0.875000000000000,  0.875000000000000,  0.875000000000000 ]
  mass: 28.085500
- symbol: Si # 2
  coordinates: [  0.125000000000000,  0.125000000000000,  0.125000000000000 ]
  mass: 28.085500
supercell_matrix:
- [   16,    0,    0 ]
- [    0,   16,    0 ]
- [    0,    0,   16 ]

phonon:
- q-position: [    0.0000000,    0.0000000,    0.0000000 ]
  distance:    0.0000000
  label: 'Gamma'
  band:
  - # 1
    frequency:   -0.0000003082
  - # 2
    frequency:   -0.0000000861
  - # 3
    frequency:    0.0000001191
  - # 4
    frequency:   13.5375170329
  - # 5
    frequency:   13.5375170329
  - # 6
    frequency:   13.5375170329

- q-position: [    0.0050000,    0.0000000,    0.0050000 ]
  distance:    0.0018311
  band:
  - # 1
    frequency:    0.0643886626
  - # 2
    frequency:    0.0643886626
  - # 3
    frequency:    0.1412269367
  - # 4
    frequency:   13.5387675538
  - # 5
    frequency:   13.5387675538
  - # 6
    frequency:   13.5389318044

- q-position: [    0.0100000,    0.0000000,    0.0100000 ]
  distance:    0.0036622
  band:
  - # 1
    frequency:    0.1288127771
  - # 2
    frequency:    0.1288127771
  - # 3
    frequency:    0.2824697770
  - # 4
    frequency:   13.5425114701
  - # 5
    frequency:   13.5425114701
  - # 6
    frequency:   13.5431689004

- q-position: [    0.0150000,    0.0000000,    0.0150000 ]
  distance:    0.0054933
  band:
  - # 1
    frequency:    0.1933071806
  - # 2
    frequency:    0.1933071806
  - # 3
    frequency:    0.4237442000
  - # 4
    frequency:   13.5487259165
  - # 5
    frequency:   13.5487259165
  - # 6
    frequency:   13.5502067166

- q-position: [    0.0200000,    0.0000000,    0.0200000 ]
  distance:    0.0073244
  band:
  - # 1
    frequency:    0.2579054949
  - # 2
    frequency:    0.2579054949
  - # 3
    frequency:    0.5650654365
  - # 4
    frequency:   13.5573730312
  - # 5
    frequency:   13.5573730312
  - # 6
    frequency:   13.5600094156

- q-position: [    0.0250000,    0.0000000,    0.0250000 ]
  distance:    0.0091554
  band:
  - # 1
    frequency:    0.3226395542
  - # 2
    frequency:    0.3226395542
  - # 3
    frequency:    0.7064480463
  - # 4
    frequency:   13.5684003210
  - # 5
    frequency:   13.5684003210
  - # 6
    frequency:   13.5725271792

- q-position: [    0.0300000,    0.0000000,    0.0300000 ]
  distance:    0.0109865
  band:
  - # 1
    frequency:    0.3875388725
  - # 2
    frequency:    0.3875388725
  - # 3
    frequency:    0.8479056984
  - # 4
    frequency:   13.5817411640
  - # 5
    frequency:   13.5817411640
  - # 6
    frequency:   13.5876965568

- q-position: [    0.0350000,    0.0000000,    0.0350000 ]
  distance:    0.0128176
  band:
  - # 1
    frequency:    0.4526301627
  - # 2
    frequency:    0.4526301627
  - # 3
    frequency:    0.9894509537
  - # 4
    frequency:   13.5973154405
  - # 5
    frequency:   13.5973154405
  - # 6
    frequency:   13.6054409040

- q-position: [    0.0400000,    0.0000000,    0.0400000 ]
  distance:    0.0146487
  band:
  - # 1
    frequency:    0.5179369145
  - # 2
    frequency:    0.5179369145
  - # 3
    frequency:    1.1310950510
  - # 4
    frequency:   13.6150302816
  - # 5
    frequency:   13.6150302816
  - # 6
    frequency:   13.6256709062

- q-position: [    0.0450000,    0.0000000,    0.0450000 ]
  distance:    0.0164798
  band:
  - # 1
    frequency:    0.5834790368
  - # 2
    frequency:    0.5834790368
  - # 3
    frequency:    1.2728476989
  - # 4
    frequency:   13.6347809225
  - # 5
    frequency:   13.6347809225
  - # 6
    frequency:   13.6482851796

- q-position: [    0.0500000,    0.0000000,    0.0500000 ]
  distance:    0.0183109
  band:
  - # 1
    frequency:    0.6492725686
  - # 2
    frequency:    0.6492725686
  - # 3
    frequency:    1.4147168715
  - # 4
    frequency:   13.6564516483
  - # 5
    frequency:   13.6564516483
  - # 6
    frequency:   13.6731709419

- q-position: [    0.0550000,    0.0000000,    0.0550000 ]
  distance:    0.0201420
  band:
  - # 1
    frequency:    0.7153294576
  - # 2
    frequency:    0.7153294576
  - # 3
    frequency:    1.5567086116
  - # 4
    frequency:   13.6799168160
  - # 5
    frequency:   13.6799168160
  - # 6
    frequency:   13.7002047433

- q-position: [    0.0600000,    0.0000000,    0.0600000 ]
  distance:    0.0219731
  band:
  - # 1
    frequency:    0.7816574055
  - # 2
    frequency:    0.7816574055
  - # 3
    frequency:    1.6988268404
  - # 4
    frequency:   13.7050419385
  - # 5
    frequency:   13.7050419385
  - # 6
    frequency:   13.7292532489

- q-position: [    0.0650000,    0.0000000,    0.0650000 ]
  distance:    0.0238042
  band:
  - # 1
    frequency:    0.8482597747
  - # 2
    frequency:    0.8482597747
  - # 3
    frequency:    1.8410731754
  - # 4
    frequency:   13.7316848159
  - # 5
    frequency:   13.7316848159
  - # 6
    frequency:   13.7601740642

- q-position: [    0.0700000,    0.0000000,    0.0700000 ]
  distance:    0.0256352
  band:
  - # 1
    frequency:    0.9151355509
  - # 2
    frequency:    0.9151355509
  - # 3
    frequency:    1.9834467583
  - # 4
    frequency:   13.7596966984
  - # 5
    frequency:   13.7596966984
  - # 6
    frequency:   13.7928165920

- q-position: [    0.0750000,    0.0000000,    0.0750000 ]
  distance:    0.0274663
  band:
  - # 1
    frequency:    0.9822793529
  - # 2
    frequency:    0.9822793529
  - # 3
    frequency:    2.1259440914
  - # 4
    frequency:   13.7889234662
  - # 5
    frequency:   13.7889234662
  - # 6
    frequency:   13.8270229131

- q-position: [    0.0800000,    0.0000000,    0.0800000 ]
  distance:    0.0292974
  band:
  - # 1
    frequency:    1.0496814824
  - # 2
    frequency:    1.0496814824
  - # 3
    frequency:    2.2685588869
  - # 4
    frequency:   13.8192068143
  - # 5
    frequency:   13.8192068143
  - # 6
    frequency:   13.8626286813

- q-position: [    0.0850000,    0.0000000,    0.0850000 ]
  distance:    0.0311285
  band:
  - # 1
    frequency:    1.1173280034
  - # 2
    frequency:    1.1173280034
  - # 3
    frequency:    2.4112819275
  - # 4
    frequency:   13.8503854277
  - # 5
    frequency:   13.8503854277
  - # 6
    frequency:   13.8994640233

- q-position: [    0.0900000,    0.0000000,    0.0900000 ]
  distance:    0.0329596
  band:
  - # 1
    frequency:    1.1852008418
  - # 2
    frequency:    1.1852008418
  - # 3
    frequency:    2.5541009402
  - # 4
    frequency:   13.8822961376
  - # 5
    frequency:   13.8822961376
  - # 6
    frequency:   13.9373544366

- q-position: [    0.0950000,    0.0000000,    0.0950000 ]
  distance:    0.0347907
  band:
  - # 1
    frequency:    1.2532778977
  - # 2
    frequency:    1.2532778977
  - # 3
    frequency:    2.6970004851
  - # 4
    frequency:   13.9147750466
  - # 5
    frequency:   13.9147750466
  - # 6
    frequency:   13.9761216766

- q-position: [    0.1000000,    0.0000000,    0.1000000 ]
  distance:    0.0366218
  band:
  - # 1
    frequency:    1.3215331596
  - # 2
    frequency:    1.3215331596
  - # 3
    frequency:    2.8399618593
  - # 4
    frequency:   13.9476586162
  - # 5
    frequency:   13.9476586162
  - # 6
    frequency:   14.0155846271

- q-position: [    0.1050000,    0.0000000,    0.1050000 ]
  distance:    0.0384529
  band:
  - # 1
    frequency:    1.3899368150
  - # 2
    frequency:    1.3899368150
  - # 3
    frequency:    2.9829630171
  - # 4
    frequency:   13.9807847067
  - # 5
    frequency:   13.9807847067
  - # 6
    frequency:   14.0555601484

- q-position: [    0.1100000,    0.0000000,    0.1100000 ]
  distance:    0.0402840
  band:
  - # 1
    frequency:    1.4584553501
  - # 2
    frequency:    1.4584553501
  - # 3
    frequency:    3.1259785078
  - # 4
    frequency:   14.0139935662
  - # 5
    frequency:   14.0139935662
  - # 6
    frequency:   14.0958638963

- q-position: [    0.1150000,    0.0000000,    0.1150000 ]
  distance:    0.0421150
  band:
  - # 1
    frequency:    1.5270516340
  - # 2
    frequency:    1.5270516340
  - # 3
    frequency:    3.2689794325
  - # 4
    frequency:   14.0471287612
  - # 5
    frequency:   14.0471287612
  - # 6
    frequency:   14.1363111103

- q-position: [    0.1200000,    0.0000000,    0.1200000 ]
  distance:    0.0439461
  band:
  - # 1
    frequency:    1.5956849820
  - # 2
    frequency:    1.5956849820
  - # 3
    frequency:    3.4119334192
  - # 4
    frequency:   14.0800380474
  - # 5
    frequency:   14.0800380474
  - # 6
    frequency:   14.1767173642

- q-position: [    0.1250000,    0.0000000,    0.1250000 ]
  distance:    0.0457772
  band:
  - # 1
    frequency:    1.6643111982
  - # 2
    frequency:    1.6643111982
  - # 3
    frequency:    3.5548046193
  - # 4
    frequency:   14.1125741754
  - # 5
    frequency:   14.1125741754
  - # 6
    frequency:   14.2168992799

- q-position: [    0.1300000,    0.0000000,    0.1300000 ]
  distance:    0.0476083
  band:
  - # 1
    frequency:    1.7328825933
  - # 2
    frequency:    1.7328825933
  - # 3
    frequency:    3.6975537239
  - # 4
    frequency:   14.1445956331
  - # 5
    frequency:   14.1445956331
  - # 6
    frequency:   14.2566751988

- q-position: [    0.1350000,    0.0000000,    0.1350000 ]
  distance:    0.0494394
  band:
  - # 1
    frequency:    1.8013479806
  - # 2
    frequency:    1.8013479806
  - # 3
    frequency:    3.8401380033
  - # 4
    frequency:   14.1759673200
  - # 5
    frequency:   14.1759673200
  - # 6
    frequency:   14.2958658127

- q-position: [    0.1400000,    0.0000000,    0.1400000 ]
  distance:    0.0512705
  band:
  - # 1
    frequency:    1.8696526483
  - # 2
    frequency:    1.8696526483
  - # 3
    frequency:    3.9825113671
  - # 4
    frequency:   14.2065611565
  - # 5
    frequency:   14.2065611565
  - # 6
    frequency:   14.3342947509

- q-position: [    0.1450000,    0.0000000,    0.1450000 ]
  distance:    0.0531016
  band:
  - # 1
    frequency:    1.9377383133
  - # 2
    frequency:    1.9377383133
  - # 3
    frequency:    4.1246244486
  - # 4
    frequency:   14.2362566267
  - # 5
    frequency:   14.2362566267
  - # 6
    frequency:   14.3717891255

- q-position: [    0.1500000,    0.0000000,    0.1500000 ]
  distance:    0.0549327
  band:
  - # 1
    frequency:    2.0055430579
  - # 2
    frequency:    2.0055430579
  - # 3
    frequency:    4.2664247112
  - # 4
    frequency:   14.2649412563
  - # 5
    frequency:   14.2649412563
  - # 6
    frequency:   14.4081800334

- q-position: [    0.1550000,    0.0000000,    0.1550000 ]
  distance:    0.0567638
  band:
  - # 1
    frequency:    2.0730012537
  - # 2
    frequency:    2.0730012537
  - # 3
    frequency:    4.4078565789
  - # 4
    frequency:   14.2925110264
  - # 5
    frequency:   14.2925110264
  - # 6
    frequency:   14.4433030170

- q-position: [    0.1600000,    0.0000000,    0.1600000 ]
  distance:    0.0585948
  band:
  - # 1
    frequency:    2.1400434772
  - # 2
    frequency:    2.1400434772
  - # 3
    frequency:    4.5488615904
  - # 4
    frequency:   14.3188707257
  - # 5
    frequency:   14.3188707257
  - # 6
    frequency:   14.4769984852

- q-position: [    0.1650000,    0.0000000,    0.1650000 ]
  distance:    0.0604259
  band:
  - # 1
    frequency:    2.2065964228
  - # 2
    frequency:    2.2065964228
  - # 3
    frequency:    4.6893785758
  - # 4
    frequency:   14.3439342416
  - # 5
    frequency:   14.3439342416
  - # 6
    frequency:   14.5091120940

- q-position: [    0.1700000,    0.0000000,    0.1700000 ]
  distance:    0.0622570
  band:
  - # 1
    frequency:    2.2725828173
  - # 2
    frequency:    2.2725828173
  - # 3
    frequency:    4.8293438578
  - # 4
    frequency:   14.3676247927
  - # 5
    frequency:   14.3676247927
  - # 6
    frequency:   14.5394950913

- q-position: [    0.1750000,    0.0000000,    0.1750000 ]
  distance:    0.0640881
  band:
  - # 1
    frequency:    2.3379213418
  - # 2
    frequency:    2.3379213418
  - # 3
    frequency:    4.9686914750
  - # 4
    frequency:   14.3898751050
  - # 5
    frequency:   14.3898751050
  - # 6
    frequency:   14.5680046258

- q-position: [    0.1800000,    0.0000000,    0.1800000 ]
  distance:    0.0659192
  band:
  - # 1
    frequency:    2.4025265677
  - # 2
    frequency:    2.4025265677
  - # 3
    frequency:    5.1073534284
  - # 4
    frequency:   14.4106275322
  - # 5
    frequency:   14.4106275322
  - # 6
    frequency:   14.5945040228

- q-position: [    0.1850000,    0.0000000,    0.1850000 ]
  distance:    0.0677503
  band:
  - # 1
    frequency:    2.4663089104
  - # 2
    frequency:    2.4663089104
  - # 3
    frequency:    5.2452599492
  - # 4
    frequency:   14.4298341239
  - # 5
    frequency:   14.4298341239
  - # 6
    frequency:   14.6188630289

- q-position: [    0.1900000,    0.0000000,    0.1900000 ]
  distance:    0.0695814
  band:
  - # 1
    frequency:    2.5291746075
  - # 2
    frequency:    2.5291746075
  - # 3
    frequency:    5.3823397888
  - # 4
    frequency:   14.4474566419
  - # 5
    frequency:   14.4474566419
  - # 6
    frequency:   14.6409580286

- q-position: [    0.1950000,    0.0000000,    0.1950000 ]
  distance:    0.0714125
  band:
  - # 1
    frequency:    2.5910257263
  - # 2
    frequency:    2.5910257263
  - # 3
    frequency:    5.5185205275
  - # 4
    frequency:   14.4634665264
  - # 5
    frequency:   14.4634665264
  - # 6
    frequency:   14.6606722329

- q-position: [    0.2000000,    0.0000000,    0.2000000 ]
  distance:    0.0732436
  band:
  - # 1
    frequency:    2.6517602060
  - # 2
    frequency:    2.6517602060
  - # 3
    frequency:    5.6537289042
  - # 4
    frequency:   14.4778448148
  - # 5
    frequency:   14.4778448148
  - # 6
    frequency:   14.6778958452

- q-position: [    0.2050000,    0.0000000,    0.2050000 ]
  distance:    0.0750746
  band:
  - # 1
    frequency:    2.7112719381
  - # 2
    frequency:    2.7112719381
  - # 3
    frequency:    5.7878911623
  - # 4
    frequency:   14.4905820124
  - # 5
    frequency:   14.4905820124
  - # 6
    frequency:   14.6925262035

- q-position: [    0.2100000,    0.0000000,    0.2100000 ]
  distance:    0.0769057
  band:
  - # 1
    frequency:    2.7694508906
  - # 2
    frequency:    2.7694508906
  - # 3
    frequency:    5.9209334136
  - # 4
    frequency:   14.5016779180
  - # 5
    frequency:   14.5016779180
  - # 6
    frequency:   14.7044679031

- q-position: [    0.2150000,    0.0000000,    0.2150000 ]
  distance:    0.0787368
  band:
  - # 1
    frequency:    2.8261832792
  - # 2
    frequency:    2.8261832792
  - # 3
    frequency:    6.0527820162
  - # 4
    frequency:   14.5111414048
  - # 5
    frequency:   14.5111414048
  - # 6
    frequency:   14.7136329005

- q-position: [    0.2200000,    0.0000000,    0.2200000 ]
  distance:    0.0805679
  band:
  - # 1
    frequency:    2.8813517888
  - # 2
    frequency:    2.8813517888
  - # 3
    frequency:    6.1833639666
  - # 4
    frequency:   14.5189901568
  - # 5
    frequency:   14.5189901568
  - # 6
    frequency:   14.7199406014

- q-position: [    0.2250000,    0.0000000,    0.2250000 ]
  distance:    0.0823990
  band:
  - # 1
    frequency:    2.9348358484
  - # 2
    frequency:    2.9348358484
  - # 3
    frequency:    6.3126073025
  - # 4
    frequency:   14.5252503626
  - # 5
    frequency:   14.5252503626
  - # 6
    frequency:   14.7233179327

- q-position: [    0.2300000,    0.0000000,    0.2300000 ]
  distance:    0.0842301
  band:
  - # 1
    frequency:    2.9865119629
  - # 2
    frequency:    2.9865119629
  - # 3
    frequency:    6.4404415163
  - # 4
    frequency:   14.5299563672
  - # 5
    frequency:   14.5299563672
  - # 6
    frequency:   14.7236994023

- q-position: [    0.2350000,    0.0000000,    0.2350000 ]
  distance:    0.0860612
  band:
  - # 1
    frequency:    3.0362541013
  - # 2
    frequency:    3.0362541013
  - # 3
    frequency:    6.5667979750
  - # 4
    frequency:   14.5331502820
  - # 5
    frequency:   14.5331502820
  - # 6
    frequency:   14.7210271455

- q-position: [    0.2400000,    0.0000000,    0.2400000 ]
  distance:    0.0878923
  band:
  - # 1
    frequency:    3.0839341452
  - # 2
    frequency:    3.0839341452
  - # 3
    frequency:    6.6916103462
  - # 4
    frequency:   14.5348815544
  - # 5
    frequency:   14.5348815544
  - # 6
    frequency:   14.7152509609

- q-position: [    0.2450000,    0.0000000,    0.2450000 ]
  distance:    0.0897233
  band:
  - # 1
    frequency:    3.1294223972
  - # 2
    frequency:    3.1294223972
  - # 3
    frequency:    6.8148150269
  - # 4
    frequency:   14.5352064979
  - # 5
    frequency:   14.5352064979
  - # 6
    frequency:   14.7063283366

- q-position: [    0.2500000,    0.0000000,    0.2500000 ]
  distance:    0.0915544
  band:
  - # 1
    frequency:    3.1725881494
  - # 2
    frequency:    3.1725881494
  - # 3
    frequency:    6.9363515731
  - # 4
    frequency:   14.5341877839
  - # 5
    frequency:   14.5341877839
  - # 6
    frequency:   14.6942244662

- q-position: [    0.2550000,    0.0000000,    0.2550000 ]
  distance:    0.0933855
  band:
  - # 1
    frequency:    3.2133003118
  - # 2
    frequency:    3.2133003118
  - # 3
    frequency:    7.0561631266
  - # 4
    frequency:   14.5318938963
  - # 5
    frequency:   14.5318938963
  - # 6
    frequency:   14.6789122563

- q-position: [    0.2600000,    0.0000000,    0.2600000 ]
  distance:    0.0952166
  band:
  - # 1
    frequency:    3.2514280997
  - # 2
    frequency:    3.2514280997
  - # 3
    frequency:    7.1741968383
  - # 4
    frequency:   14.5283985515
  - # 5
    frequency:   14.5283985515
  - # 6
    frequency:   14.6603723256

- q-position: [    0.2650000,    0.0000000,    0.2650000 ]
  distance:    0.0970477
  band:
  - # 1
    frequency:    3.2868417776
  - # 2
    frequency:    3.2868417776
  - # 3
    frequency:    7.2904042836
  - # 4
    frequency:   14.5237800853
  - # 5
    frequency:   14.5237800853
  - # 6
    frequency:   14.6385929953

- q-position: [    0.2700000,    0.0000000,    0.2700000 ]
  distance:    0.0988788
  band:
  - # 1
    frequency:    3.3194134576
  - # 2
    frequency:    3.3194134576
  - # 3
    frequency:    7.4047418672
  - # 4
    frequency:   14.5181208101
  - # 5
    frequency:   14.5181208101
  - # 6
    frequency:   14.6135702719

- q-position: [    0.2750000,    0.0000000,    0.2750000 ]
  distance:    0.1007099
  band:
  - # 1
    frequency:    3.3490179495
  - # 2
    frequency:    3.3490179495
  - # 3
    frequency:    7.5171712153
  - # 4
    frequency:   14.5115063452
  - # 5
    frequency:   14.5115063452
  - # 6
    frequency:   14.5853078202

- q-position: [    0.2800000,    0.0000000,    0.2800000 ]
  distance:    0.1025410
  band:
  - # 1
    frequency:    3.3755336567
  - # 2
    frequency:    3.3755336567
  - # 3
    frequency:    7.6276595516
  - # 4
    frequency:   14.5040249245
  - # 5
    frequency:   14.5040249245
  - # 6
    frequency:   14.5538169285

- q-position: [    0.2850000,    0.0000000,    0.2850000 ]
  distance:    0.1043721
  band:
  - # 1
    frequency:    3.3988435158
  - # 2
    frequency:    3.3988435158
  - # 3
    frequency:    7.7361800542
  - # 4
    frequency:   14.4957666874
  - # 5
    frequency:   14.4957666874
  - # 6
    frequency:   14.5191164636

- q-position: [    0.2900000,    0.0000000,    0.2900000 ]
  distance:    0.1062031
  band:
  - # 1
    frequency:    3.4188359720
  - # 2
    frequency:    3.4188359720
  - # 3
    frequency:    7.8427121895
  - # 4
    frequency:   14.4812328158
  - # 5
    frequency:   14.4868229561
  - # 6
    frequency:   14.4868229561

- q-position: [    0.2950000,    0.0000000,    0.2950000 ]
  distance:    0.1080342
  band:
  - # 1
    frequency:    3.4354059857
  - # 2
    frequency:    3.4354059857
  - # 3
    frequency:    7.9472420219
  - # 4
    frequency:   14.4401998325
  - # 5
    frequency:   14.4772855076
  - # 6
    frequency:   14.4772855076

- q-position: [    0.3000000,    0.0000000,    0.3000000 ]
  distance:    0.1098653
  band:
  - # 1
    frequency:    3.4484560632
  - # 2
    frequency:    3.4484560632
  - # 3
    frequency:    8.0497624938
  - # 4
    frequency:   14.3960587404
  - # 5
    frequency:   14.4672458465
  - # 6
    frequency:   14.4672458465

- q-position: [    0.3050000,    0.0000000,    0.3050000 ]
  distance:    0.1116964
  band:
  - # 1
    frequency:    3.4578973046
  - # 2
    frequency:    3.4578973046
  - # 3
    frequency:    8.1502736749
  - # 4
    frequency:   14.3488580533
  - # 5
    frequency:   14.4567944857
  - # 6
    frequency:   14.4567944857

- q-position: [    0.3100000,    0.0000000,    0.3100000 ]
  distance:    0.1135275
  band:
  - # 1
    frequency:    3.4636504616
  - # 2
    frequency:    3.4636504616
  - # 3
    frequency:    8.2487829755
  - # 4
    frequency:   14.2986534664
  - # 5
    frequency:   14.4460202435
  - # 6
    frequency:   14.4460202435

- q-position: [    0.3150000,    0.0000000,    0.3150000 ]
  distance:    0.1153586
  band:
  - # 1
    frequency:    3.4656469979
  - # 2
    frequency:    3.4656469979
  - # 3
    frequency:    8.3453053233
  - # 4
    frequency:   14.2455077344
  - # 5
    frequency:   14.4350095655
  - # 6
    frequency:   14.4350095655

- q-position: [    0.3200000,    0.0000000,    0.3200000 ]
  distance:    0.1171897
  band:
  - # 1
    frequency:    3.4638301460
  - # 2
    frequency:    3.4638301460
  - # 3
    frequency:    8.4398632977
  - # 4
    frequency:   14.1894905320
  - # 5
    frequency:   14.4238458790
  - # 6
    frequency:   14.4238458790

- q-position: [    0.3250000,    0.0000000,    0.3250000 ]
  distance:    0.1190208
  band:
  - # 1
    frequency:    3.4581559525
  - # 2
    frequency:    3.4581559525
  - # 3
    frequency:    8.5324872216
  - # 4
    frequency:   14.1306782963
  - # 5
    frequency:   14.4126089894
  - # 6
    frequency:   14.4126089894

- q-position: [    0.3300000,    0.0000000,    0.3300000 ]
  distance:    0.1208519
  band:
  - # 1
    frequency:    3.4485943085
  - # 2
    frequency:    3.4485943085
  - # 3
    frequency:    8.6232152054
  - # 4
    frequency:   14.0691540479
  - # 5
    frequency:   14.4013745260
  - # 6
    frequency:   14.4013745260

- q-position: [    0.3350000,    0.0000000,    0.3350000 ]
  distance:    0.1226829
  band:
  - # 1
    frequency:    3.4351299587
  - # 2
    frequency:    3.4351299587
  - # 3
    frequency:    8.7120931424
  - # 4
    frequency:   14.0050071915
  - # 5
    frequency:   14.3902134450
  - # 6
    frequency:   14.3902134450

- q-position: [    0.3400000,    0.0000000,    0.3400000 ]
  distance:    0.1245140
  band:
  - # 1
    frequency:    3.4177634875
  - # 2
    frequency:    3.4177634875
  - # 3
    frequency:    8.7991746517
  - # 4
    frequency:   13.9383332919
  - # 5
    frequency:   14.3791915976
  - # 6
    frequency:   14.3791915976

- q-position: [    0.3450000,    0.0000000,    0.3450000 ]
  distance:    0.1263451
  band:
  - # 1
    frequency:    3.3965122812
  - # 2
    frequency:    3.3965122812
  - # 3
    frequency:    8.8845209683
  - # 4
    frequency:   13.8692338256
  - # 5
    frequency:   14.3683693670
  - # 6
    frequency:   14.3683693670

- q-position: [    0.3500000,    0.0000000,    0.3500000 ]
  distance:    0.1281762
  band:
  - # 1
    frequency:    3.3714114662
  - # 2
    frequency:    3.3714114662
  - # 3
    frequency:    8.9682007758
  - # 4
    frequency:   13.7978159062
  - # 5
    frequency:   14.3578013816
  - # 6
    frequency:   14.3578013816

- q-position: [    0.3550000,    0.0000000,    0.3550000 ]
  distance:    0.1300073
  band:
  - # 1
    frequency:    3.3425148288
  - # 2
    frequency:    3.3425148288
  - # 3
    frequency:    9.0502899831
  - # 4
    frequency:   13.7241919816
  - # 5
    frequency:   14.3475363055
  - # 6
    frequency:   14.3475363055

- q-position: [    0.3600000,    0.0000000,    0.3600000 ]
  distance:    0.1318384
  band:
  - # 1
    frequency:    3.3098957199
  - # 2
    frequency:    3.3098957199
  - # 3
    frequency:    9.1308714416
  - # 4
    frequency:   13.6484795028
  - # 5
    frequency:   14.3376167103
  - # 6
    frequency:   14.3376167103

- q-position: [    0.3650000,    0.0000000,    0.3650000 ]
  distance:    0.1336695
  band:
  - # 1
    frequency:    3.2736479556
  - # 2
    frequency:    3.2736479556
  - # 3
    frequency:    9.2100346034
  - # 4
    frequency:   13.5708005620
  - # 5
    frequency:   14.3280790261
  - # 6
    frequency:   14.3280790261

- q-position: [    0.3700000,    0.0000000,    0.3700000 ]
  distance:    0.1355006
  band:
  - # 1
    frequency:    3.2338867232
  - # 2
    frequency:    3.2338867232
  - # 3
    frequency:    9.2878751201
  - # 4
    frequency:   13.4912815002
  - # 5
    frequency:   14.3189535728
  - # 6
    frequency:   14.3189535728

- q-position: [    0.3750000,    0.0000000,    0.3750000 ]
  distance:    0.1373317
  band:
  - # 1
    frequency:    3.1907495061
  - # 2
    frequency:    3.1907495061
  - # 3
    frequency:    9.3644943822
  - # 4
    frequency:   13.4100524826
  - # 5
    frequency:   14.3102646668
  - # 6
    frequency:   14.3102646668

- q-position: [    0.3800000,    0.0000000,    0.3800000 ]
  distance:    0.1391627
  band:
  - # 1
    frequency:    3.1443970433
  - # 2
    frequency:    3.1443970433
  - # 3
    frequency:    9.4399990007
  - # 4
    frequency:   13.3272470425
  - # 5
    frequency:   14.3020308008
  - # 6
    frequency:   14.3020308008

- q-position: [    0.3850000,    0.0000000,    0.3850000 ]
  distance:    0.1409938
  band:
  - # 1
    frequency:    3.0950143393
  - # 2
    frequency:    3.0950143393
  - # 3
    frequency:    9.5145002315
  - # 4
    frequency:   13.2430015920
  - # 5
    frequency:   14.2942648889
  - # 6
    frequency:   14.2942648889

- q-position: [    0.3900000,    0.0000000,    0.3900000 ]
  distance:    0.1428249
  band:
  - # 1
    frequency:    3.0428117400
  - # 2
    frequency:    3.0428117400
  - # 3
    frequency:    9.5881133462
  - # 4
    frequency:   13.1574549020
  - # 5
    frequency:   14.2869745724
  - # 6
    frequency:   14.2869745724

- q-position: [    0.3950000,    0.0000000,    0.3950000 ]
  distance:    0.1446560
  band:
  - # 1
    frequency:    2.9880260896
  - # 2
    frequency:    2.9880260896
  - # 3
    frequency:    9.6609569510
  - # 4
    frequency:   13.0707475488
  - # 5
    frequency:   14.2801625769
  - # 6
    frequency:   14.2801625769

- q-position: [    0.4000000,    0.0000000,    0.4000000 ]
  distance:    0.1464871
  band:
  - # 1
    frequency:    2.9309219779
  - # 2
    frequency:    2.9309219779
  - # 3
    frequency:    9.7331522585
  - # 4
    frequency:   12.9830213324
  - # 5
    frequency:   14.2738271144
  - # 6
    frequency:   14.2738271144

- q-position: [    0.4050000,    0.0000000,    0.4050000 ]
  distance:    0.1483182
  band:
  - # 1
    frequency:    2.8717930809
  - # 2
    frequency:    2.8717930809
  - # 3
    frequency:    9.8048223164
  - # 4
    frequency:   12.8944186636
  - # 5
    frequency:   14.2679623197
  - # 6
    frequency:   14.2679623197

- q-position: [    0.4100000,    0.0000000,    0.4100000 ]
  distance:    0.1501493
  band:
  - # 1
    frequency:    2.8109635864
  - # 2
    frequency:    2.8109635864
  - # 3
    frequency:    9.8760911985
  - # 4
    frequency:   12.8050819256
  - # 5
    frequency:   14.2625587145
  - # 6
    frequency:   14.2625587145

- q-position: [    0.4150000,    0.0000000,    0.4150000 ]
  distance:    0.1519804
  band:
  - # 1
    frequency:    2.7487896750
  - # 2
    frequency:    2.7487896750
  - # 3
    frequency:    9.9470831644
  - # 4
    frequency:   12.7151528101
  - # 5
    frequency:   14.2576036893
  - # 6
    frequency:   14.2576036893

- q-position: [    0.4200000,    0.0000000,    0.4200000 ]
  distance:    0.1538115
  band:
  - # 1
    frequency:    2.6856610072
  - # 2
    frequency:    2.6856610072
  - # 3
    frequency:   10.0179217942
  - # 4
    frequency:   12.6247716318
  - # 5
    frequency:   14.2530819948
  - # 6
    frequency:   14.2530819948

- q-position: [    0.4250000,    0.0000000,    0.4250000 ]
  distance:    0.1556425
  band:
  - # 1
    frequency:    2.6220021244
  - # 2
    frequency:    2.6220021244
  - # 3
    frequency:   10.0887291055
  - # 4
    frequency:   12.5340766250
  - # 5
    frequency:   14.2489762368
  - # 6
    frequency:   14.2489762368

- q-position: [    0.4300000,    0.0000000,    0.4300000 ]
  distance:    0.1574736
  band:
  - # 1
    frequency:    2.5582736305
  - # 2
    frequency:    2.5582736305
  - # 3
    frequency:   10.1596246615
  - # 4
    frequency:   12.4432032255
  - # 5
    frequency:   14.2452673647
  - # 6
    frequency:   14.2452673647

- q-position: [    0.4350000,    0.0000000,    0.4350000 ]
  distance:    0.1593047
  band:
  - # 1
    frequency:    2.4949729556
  - # 2
    frequency:    2.4949729556
  - # 3
    frequency:   10.2307246776
  - # 4
    frequency:   12.3522833439
  - # 5
    frequency:   14.2419351500
  - # 6
    frequency:   14.2419351500

- q-position: [    0.4400000,    0.0000000,    0.4400000 ]
  distance:    0.1611358
  band:
  - # 1
    frequency:    2.4326344298
  - # 2
    frequency:    2.4326344298
  - # 3
    frequency:   10.3021411361
  - # 4
    frequency:   12.2614446340
  - # 5
    frequency:   14.2389586478
  - # 6
    frequency:   14.2389586478
