 128
   1   1
    13.273055891566861     0.000000000000000     0.000000000000000
     0.000000000000000    13.273055891566862     0.000000000000000
     0.000000000000000     0.000000000000000    13.273055891566852
   1   2
     0.268252310703939     0.029424667583889     0.029424667583889
    -0.029424667583889    -0.192277363482958    -0.211428022589525
    -0.029424667583889    -0.211428022589525    -0.192277363482958
   1   3
     0.051514288509140     0.000000000000000     0.000000000000000
     0.000000000000000    -0.104880633902555    -0.053621620663002
     0.000000000000000    -0.053621620663003    -0.104880633902555
   1   4
     0.268252310703939    -0.029424667583889    -0.029424667583889
     0.029424667583889    -0.192277363482958    -0.211428022589525
     0.029424667583889    -0.211428022589525    -0.192277363482958
   1   5
    -0.192277363482958    -0.029424667583889    -0.211428022589525
     0.029424667583889     0.268252310703939     0.029424667583889
    -0.211428022589525    -0.029424667583889    -0.192277363482958
   1   6
    -0.037851572302912     0.016686818464594    -0.007810192183333
     0.016686818464594    -0.037851572302912    -0.007810192183333
    -0.004191446511762    -0.004191446511762    -0.066309689619601
   1   7
    -0.037851572302912     0.007810192183333    -0.016686818464594
     0.004191446511762    -0.066309689619601    -0.004191446511762
    -0.016686818464594    -0.007810192183333    -0.037851572302912
   1   8
    -0.192277363482958     0.211428022589525     0.029424667583889
     0.211428022589525    -0.192277363482958    -0.029424667583889
    -0.029424667583889     0.029424667583889     0.268252310703939
   1   9
    -0.104880633902555     0.000000000000000    -0.053621620663003
     0.000000000000000     0.051514288509140     0.000000000000000
    -0.053621620663002     0.000000000000000    -0.104880633902555
   1  10
    -0.066309689619601     0.004191446511762    -0.004191446511762
     0.007810192183333    -0.037851572302912    -0.016686818464594
    -0.007810192183333    -0.016686818464594    -0.037851572302912
   1  11
    -0.104880633902555     0.053621620663002     0.000000000000000
     0.053621620663002    -0.104880633902555     0.000000000000000
     0.000000000000000     0.000000000000000     0.051514288509140
   1  12
    -0.066309689619601     0.007810192183333    -0.007810192183333
     0.004191446511762    -0.037851572302912    -0.016686818464594
    -0.004191446511762    -0.016686818464594    -0.037851572302912
   1  13
    -0.192277363482958     0.029424667583889    -0.211428022589525
    -0.029424667583889     0.268252310703939    -0.029424667583889
    -0.211428022589525     0.029424667583889    -0.192277363482958
   1  14
    -0.192277363482958     0.211428022589525    -0.029424667583889
     0.211428022589525    -0.192277363482958     0.029424667583889
     0.029424667583889    -0.029424667583889     0.268252310703939
   1  15
    -0.037851572302912     0.004191446511762    -0.016686818464594
     0.007810192183333    -0.066309689619601    -0.007810192183333
    -0.016686818464594    -0.004191446511762    -0.037851572302912
   1  16
    -0.037851572302912     0.016686818464594    -0.004191446511762
     0.016686818464594    -0.037851572302912    -0.004191446511762
    -0.007810192183333    -0.007810192183333    -0.066309689619601
   1  17
    -0.192277363482958    -0.211428022589525    -0.029424667583889
    -0.211428022589525    -0.192277363482958    -0.029424667583889
     0.029424667583889     0.029424667583889     0.268252310703939
   1  18
    -0.037851572302912    -0.007810192183333     0.016686818464594
    -0.004191446511762    -0.066309689619601    -0.004191446511762
     0.016686818464594    -0.007810192183333    -0.037851572302912
   1  19
    -0.037851572302912    -0.016686818464594     0.007810192183333
    -0.016686818464594    -0.037851572302912    -0.007810192183333
     0.004191446511762    -0.004191446511762    -0.066309689619601
   1  20
    -0.192277363482958     0.029424667583889     0.211428022589525
    -0.029424667583889     0.268252310703939     0.029424667583889
     0.211428022589525    -0.029424667583889    -0.192277363482958
   1  21
    -0.066309689619601    -0.004191446511762    -0.004191446511762
    -0.007810192183333    -0.037851572302912     0.016686818464594
    -0.007810192183333     0.016686818464594    -0.037851572302912
   1  22
    -0.086624940556389     0.000000000000000     0.000000000000000
     0.000000000000000    -0.086624940556389     0.000000000000000
     0.000000000000000     0.000000000000000    -0.086624940556389
   1  23
    -0.066309689619601     0.004191446511762     0.004191446511762
     0.007810192183333    -0.037851572302912     0.016686818464594
     0.007810192183333     0.016686818464594    -0.037851572302912
   1  24
    -0.108014513122131     0.000000000000000     0.000000000000000
     0.000000000000000    -0.089951040633659     0.000000000000000
     0.000000000000000     0.000000000000000    -0.089951040633659
   1  25
    -0.037851572302912    -0.016686818464594    -0.007810192183333
    -0.016686818464594    -0.037851572302912     0.007810192183333
    -0.004191446511762     0.004191446511762    -0.066309689619601
   1  26
    -0.037851572302912     0.007810192183333     0.016686818464594
     0.004191446511762    -0.066309689619601     0.004191446511762
     0.016686818464594     0.007810192183333    -0.037851572302912
   1  27
     0.022697981362108     0.007178264713732     0.001460454363417
     0.007178264713732     0.022697981362108     0.001460454363417
    -0.001460454363417    -0.001460454363417    -0.055478806262468
   1  28
     0.022697981362108    -0.001460454363417    -0.007178264713732
     0.001460454363417    -0.055478806262468    -0.001460454363417
    -0.007178264713732     0.001460454363417     0.022697981362108
   1  29
     0.268252310703939    -0.029424667583889     0.029424667583889
     0.029424667583889    -0.192277363482958     0.211428022589525
    -0.029424667583889     0.211428022589525    -0.192277363482958
   1  30
    -0.089951040633659     0.000000000000000     0.000000000000000
     0.000000000000000    -0.108014513122131     0.000000000000000
     0.000000000000000     0.000000000000000    -0.089951040633659
   1  31
    -0.055478806262468     0.001460454363417    -0.001460454363417
    -0.001460454363417     0.022697981362108    -0.007178264713732
     0.001460454363417    -0.007178264713732     0.022697981362108
   1  32
    -0.089951040633659     0.000000000000000     0.000000000000000
     0.000000000000000    -0.089951040633659     0.000000000000000
     0.000000000000000     0.000000000000000    -0.108014513122131
   1  33
    -0.104880633902555    -0.053621620663002     0.000000000000000
    -0.053621620663002    -0.104880633902555     0.000000000000000
     0.000000000000000     0.000000000000000     0.051514288509140
   1  34
    -0.066309689619601    -0.004191446511762     0.004191446511762
    -0.007810192183333    -0.037851572302912    -0.016686818464594
     0.007810192183333    -0.016686818464594    -0.037851572302912
   1  35
    -0.104880633902555     0.000000000000000     0.053621620663003
     0.000000000000000     0.051514288509140     0.000000000000000
     0.053621620663002     0.000000000000000    -0.104880633902555
   1  36
    -0.066309689619601    -0.007810192183333     0.007810192183333
    -0.004191446511762    -0.037851572302912    -0.016686818464594
     0.004191446511762    -0.016686818464594    -0.037851572302912
   1  37
    -0.037851572302912    -0.007810192183333    -0.016686818464594
    -0.004191446511762    -0.066309689619601     0.004191446511762
    -0.016686818464594     0.007810192183333    -0.037851572302912
   1  38
    -0.037851572302912     0.016686818464594     0.007810192183333
     0.016686818464594    -0.037851572302912     0.007810192183333
     0.004191446511762     0.004191446511762    -0.066309689619601
   1  39
     0.022697981362108     0.001460454363417     0.007178264713732
    -0.001460454363417    -0.055478806262468    -0.001460454363417
     0.007178264713732     0.001460454363417     0.022697981362108
   1  40
     0.022697981362108    -0.007178264713732    -0.001460454363417
    -0.007178264713732     0.022697981362107     0.001460454363417
     0.001460454363417    -0.001460454363417    -0.055478806262468
   1  41
     0.051514288509140     0.000000000000000     0.000000000000000
     0.000000000000000    -0.104880633902555     0.053621620663002
     0.000000000000000     0.053621620663002    -0.104880633902555
   1  42
    -0.055478806262468    -0.001460454363417    -0.001460454363417
     0.001460454363417     0.022697981362108     0.007178264713732
     0.001460454363417     0.007178264713732     0.022697981362108
   1  43
    -0.035826096111303     0.000000000000000     0.000000000000000
     0.000000000000000    -0.035826096111303     0.000000000000000
     0.000000000000000     0.000000000000000    -0.035826096111303
   1  44
    -0.055478806262468     0.001460454363417     0.001460454363417
    -0.001460454363417     0.022697981362107     0.007178264713732
    -0.001460454363417     0.007178264713732     0.022697981362108
   1  45
    -0.037851572302912    -0.004191446511762    -0.016686818464594
    -0.007810192183333    -0.066309689619601     0.007810192183333
    -0.016686818464594     0.004191446511762    -0.037851572302912
   1  46
     0.022697981362108    -0.007178264713732     0.001460454363417
    -0.007178264713732     0.022697981362108    -0.001460454363417
    -0.001460454363417     0.001460454363417    -0.055478806262468
   1  47
     0.022697981362108    -0.001460454363417     0.007178264713732
     0.001460454363417    -0.055478806262468     0.001460454363417
     0.007178264713732    -0.001460454363417     0.022697981362108
   1  48
    -0.037851572302912     0.016686818464594     0.004191446511762
     0.016686818464594    -0.037851572302912     0.004191446511762
     0.007810192183333     0.007810192183333    -0.066309689619601
   1  49
    -0.192277363482958    -0.211428022589525     0.029424667583889
    -0.211428022589525    -0.192277363482958     0.029424667583889
    -0.029424667583889    -0.029424667583889     0.268252310703939
   1  50
    -0.192277363482958    -0.029424667583889     0.211428022589525
     0.029424667583889     0.268252310703939    -0.029424667583889
     0.211428022589525     0.029424667583889    -0.192277363482958
   1  51
    -0.037851572302912    -0.016686818464594     0.004191446511762
    -0.016686818464594    -0.037851572302912    -0.004191446511762
     0.007810192183333    -0.007810192183333    -0.066309689619601
   1  52
    -0.037851572302912    -0.004191446511762     0.016686818464594
    -0.007810192183333    -0.066309689619601    -0.007810192183333
     0.016686818464594    -0.004191446511762    -0.037851572302912
   1  53
     0.268252310703939     0.029424667583889    -0.029424667583889
    -0.029424667583889    -0.192277363482958     0.211428022589525
     0.029424667583889     0.211428022589525    -0.192277363482958
   1  54
    -0.089951040633659     0.000000000000000     0.000000000000000
     0.000000000000000    -0.089951040633659     0.000000000000000
     0.000000000000000     0.000000000000000    -0.108014513122131
   1  55
    -0.055478806262468    -0.001460454363417     0.001460454363417
     0.001460454363417     0.022697981362108    -0.007178264713732
    -0.001460454363417    -0.007178264713732     0.022697981362108
   1  56
    -0.089951040633659     0.000000000000000     0.000000000000000
     0.000000000000000    -0.108014513122130     0.000000000000000
     0.000000000000000     0.000000000000000    -0.089951040633659
   1  57
    -0.037851572302912    -0.016686818464594    -0.004191446511762
    -0.016686818464594    -0.037851572302912     0.004191446511762
    -0.007810192183333     0.007810192183333    -0.066309689619601
   1  58
     0.022697981362108     0.001460454363417    -0.007178264713732
    -0.001460454363417    -0.055478806262468     0.001460454363417
    -0.007178264713732    -0.001460454363417     0.022697981362108
   1  59
     0.022697981362108     0.007178264713732    -0.001460454363417
     0.007178264713732     0.022697981362107    -0.001460454363417
     0.001460454363417     0.001460454363417    -0.055478806262468
   1  60
    -0.037851572302912     0.004191446511762     0.016686818464594
     0.007810192183333    -0.066309689619601     0.007810192183333
     0.016686818464594     0.004191446511762    -0.037851572302912
   1  61
    -0.066309689619601    -0.007810192183333    -0.007810192183333
    -0.004191446511762    -0.037851572302912     0.016686818464594
    -0.004191446511762     0.016686818464594    -0.037851572302912
   1  62
    -0.108014513122131     0.000000000000000     0.000000000000000
     0.000000000000000    -0.089951040633659     0.000000000000000
     0.000000000000000     0.000000000000000    -0.089951040633659
   1  63
    -0.066309689619601     0.007810192183333     0.007810192183333
     0.004191446511762    -0.037851572302912     0.016686818464594
     0.004191446511762     0.016686818464594    -0.037851572302912
   1  64
    -0.086624940556389     0.000000000000000     0.000000000000000
     0.000000000000000    -0.086624940556388     0.000000000000000
     0.000000000000000     0.000000000000000    -0.086624940556389
   1  65
     0.055947327923733    -0.006419284878968    -0.006419284878968
    -0.006419284878968     0.055947327923733    -0.006419284878968
    -0.006419284878968    -0.006419284878968     0.055947327923733
   1  66
     0.064161015850320     0.039152381324487     0.039152381324487
     0.039152381324487     0.055805407927177    -0.006271694206974
     0.039152381324487    -0.006271694206974     0.055805407927177
   1  67
     0.064161015850320    -0.039152381324487    -0.039152381324487
    -0.039152381324487     0.055805407927177    -0.006271694206974
    -0.039152381324487    -0.006271694206974     0.055805407927177
   1  68
     0.055947327923733     0.006419284878968     0.006419284878968
     0.006419284878968     0.055947327923733    -0.006419284878968
     0.006419284878968    -0.006419284878968     0.055947327923733
   1  69
     0.055805407927177     0.039152381324487    -0.006271694206974
     0.039152381324487     0.064161015850320     0.039152381324487
    -0.006271694206974     0.039152381324487     0.055805407927177
   1  70
    -3.195862908058885    -2.589864755410773     2.589864755410772
    -2.589864755410772    -3.195862908058886     2.589864755410771
     2.589864755410770     2.589864755410771    -3.195862908058885
   1  71
     0.055805407927177     0.006271694206974    -0.039152381324487
     0.006271694206974     0.055805407927177     0.039152381324487
    -0.039152381324487     0.039152381324487     0.064161015850320
   1  72
     0.048763597746074    -0.011608912823606     0.011608912823606
    -0.011608912823605     0.026062938060055     0.006348097535452
     0.011608912823605     0.006348097535452     0.026062938060055
   1  73
     0.055805407927177    -0.039152381324487    -0.006271694206974
    -0.039152381324487     0.064161015850320    -0.039152381324487
    -0.006271694206974    -0.039152381324487     0.055805407927177
   1  74
     0.055805407927177     0.006271694206974     0.039152381324487
     0.006271694206974     0.055805407927177    -0.039152381324487
     0.039152381324487    -0.039152381324487     0.064161015850320
   1  75
     0.036365323822940    -0.012252465925544    -0.005351338895362
    -0.012252465925544     0.036365323822940    -0.005351338895362
    -0.005351338895359    -0.005351338895359     0.055594120830532
   1  76
     0.036365323822940     0.005351338895362     0.012252465925544
     0.005351338895359     0.055594120830532    -0.005351338895359
     0.012252465925544    -0.005351338895362     0.036365323822940
   1  77
     0.055947327923733     0.006419284878968    -0.006419284878968
     0.006419284878968     0.055947327923733     0.006419284878968
    -0.006419284878968     0.006419284878968     0.055947327923733
   1  78
     0.026062938060055    -0.011608912823605     0.006348097535452
    -0.011608912823606     0.048763597746074     0.011608912823606
     0.006348097535452     0.011608912823605     0.026062938060055
   1  79
     0.055594120830532     0.005351338895359    -0.005351338895359
     0.005351338895362     0.036365323822940     0.012252465925544
    -0.005351338895362     0.012252465925544     0.036365323822940
   1  80
     0.026062938060055    -0.006348097535452     0.011608912823605
    -0.006348097535452     0.026062938060055     0.011608912823605
     0.011608912823606     0.011608912823606     0.048763597746074
   1  81
     0.055805407927177    -0.006271694206974     0.039152381324487
    -0.006271694206974     0.055805407927177     0.039152381324487
     0.039152381324487     0.039152381324487     0.064161015850320
   1  82
    -3.195862908058885     2.589864755410772    -2.589864755410772
     2.589864755410771    -3.195862908058885     2.589864755410771
    -2.589864755410770     2.589864755410771    -3.195862908058885
   1  83
     0.055805407927177    -0.039152381324487     0.006271694206974
    -0.039152381324487     0.064161015850320     0.039152381324487
     0.006271694206974     0.039152381324487     0.055805407927177
   1  84
     0.048763597746074     0.011608912823606    -0.011608912823606
     0.011608912823605     0.026062938060055     0.006348097535452
    -0.011608912823605     0.006348097535452     0.026062938060055
   1  85
    -3.195862908058886     2.589864755410771     2.589864755410772
     2.589864755410771    -3.195862908058884    -2.589864755410770
     2.589864755410773    -2.589864755410771    -3.195862908058885
   1  86
    -3.195862908058885    -2.589864755410772    -2.589864755410772
    -2.589864755410771    -3.195862908058885    -2.589864755410771
    -2.589864755410770    -2.589864755410771    -3.195862908058885
   1  87
    -0.058576807585291     0.041500882526301     0.041500882526301
     0.041500882526301     0.047373002099480    -0.012203246793640
     0.041500882526301    -0.012203246793640     0.047373002099480
   1  88
    -0.058576807585291    -0.041500882526301    -0.041500882526301
    -0.041500882526301     0.047373002099480    -0.012203246793640
    -0.041500882526301    -0.012203246793640     0.047373002099480
   1  89
     0.064161015850320    -0.039152381324487     0.039152381324487
    -0.039152381324487     0.055805407927177     0.006271694206974
     0.039152381324487     0.006271694206974     0.055805407927177
   1  90
     0.047373002099480     0.041500882526301    -0.012203246793640
     0.041500882526301    -0.058576807585291     0.041500882526301
    -0.012203246793640     0.041500882526301     0.047373002099480
   1  91
     0.065633167448687    -0.014736807192018     0.014736807192019
    -0.014736807192018     0.065633167448687     0.014736807192018
     0.014736807192018     0.014736807192019     0.065633167448687
   1  92
     0.047373002099480     0.012203246793640    -0.041500882526301
     0.012203246793640     0.047373002099480     0.041500882526301
    -0.041500882526301     0.041500882526301    -0.058576807585291
   1  93
     0.026062938060055     0.011608912823605     0.006348097535452
     0.011608912823606     0.048763597746074    -0.011608912823606
     0.006348097535452    -0.011608912823605     0.026062938060055
   1  94
     0.047373002099480    -0.041500882526301    -0.012203246793640
    -0.041500882526301    -0.058576807585291    -0.041500882526301
    -0.012203246793640    -0.041500882526301     0.047373002099480
   1  95
     0.047373002099480     0.012203246793640     0.041500882526301
     0.012203246793640     0.047373002099480    -0.041500882526301
     0.041500882526301    -0.041500882526301    -0.058576807585291
   1  96
     0.026062938060055    -0.006348097535452    -0.011608912823606
    -0.006348097535452     0.026062938060055    -0.011608912823606
    -0.011608912823605    -0.011608912823605     0.048763597746074
   1  97
     0.055805407927177    -0.006271694206974    -0.039152381324487
    -0.006271694206974     0.055805407927177    -0.039152381324487
    -0.039152381324487    -0.039152381324487     0.064161015850320
   1  98
     0.055805407927177     0.039152381324487     0.006271694206974
     0.039152381324487     0.064161015850320    -0.039152381324487
     0.006271694206974    -0.039152381324487     0.055805407927177
   1  99
     0.036365323822940    -0.005351338895359    -0.012252465925544
    -0.005351338895362     0.055594120830532    -0.005351338895362
    -0.012252465925544    -0.005351338895359     0.036365323822940
   1 100
     0.036365323822940     0.012252465925544     0.005351338895362
     0.012252465925544     0.036365323822940    -0.005351338895362
     0.005351338895359    -0.005351338895359     0.055594120830532
   1 101
     0.064161015850320     0.039152381324487    -0.039152381324487
     0.039152381324487     0.055805407927177     0.006271694206974
    -0.039152381324487     0.006271694206974     0.055805407927177
   1 102
     0.047373002099480    -0.012203246793640     0.041500882526301
    -0.012203246793640     0.047373002099480     0.041500882526301
     0.041500882526301     0.041500882526301    -0.058576807585291
   1 103
     0.065633167448687     0.014736807192019    -0.014736807192019
     0.014736807192019     0.065633167448688     0.014736807192019
    -0.014736807192018     0.014736807192019     0.065633167448687
   1 104
     0.047373002099480    -0.041500882526301     0.012203246793640
    -0.041500882526301    -0.058576807585291     0.041500882526301
     0.012203246793640     0.041500882526301     0.047373002099480
   1 105
     0.055594120830532    -0.005351338895362    -0.005351338895362
    -0.005351338895359     0.036365323822940    -0.012252465925544
    -0.005351338895359    -0.012252465925544     0.036365323822940
   1 106
     0.065633167448687     0.014736807192019     0.014736807192018
     0.014736807192019     0.065633167448687    -0.014736807192018
     0.014736807192018    -0.014736807192018     0.065633167448687
   1 107
     0.065633167448687    -0.014736807192019    -0.014736807192019
    -0.014736807192019     0.065633167448688    -0.014736807192019
    -0.014736807192018    -0.014736807192019     0.065633167448687
   1 108
     0.055594120830532     0.005351338895362     0.005351338895362
     0.005351338895359     0.036365323822940    -0.012252465925544
     0.005351338895359    -0.012252465925544     0.036365323822940
   1 109
     0.036365323822940     0.012252465925544    -0.005351338895362
     0.012252465925544     0.036365323822940     0.005351338895362
    -0.005351338895359     0.005351338895359     0.055594120830532
   1 110
    -0.058576807585291    -0.041500882526301     0.041500882526301
    -0.041500882526301     0.047373002099480     0.012203246793640
     0.041500882526301     0.012203246793640     0.047373002099480
   1 111
     0.036365323822940     0.005351338895362    -0.012252465925544
     0.005351338895359     0.055594120830532     0.005351338895359
    -0.012252465925544     0.005351338895362     0.036365323822940
   1 112
     0.000624878533622    -0.006497234509769     0.006497234509769
    -0.006497234509769     0.000624878533622     0.006497234509769
     0.006497234509769     0.006497234509769     0.000624878533622
   1 113
     0.055947327923733    -0.006419284878968     0.006419284878968
    -0.006419284878968     0.055947327923733     0.006419284878968
     0.006419284878968     0.006419284878968     0.055947327923733
   1 114
     0.026062938060055     0.006348097535452    -0.011608912823605
     0.006348097535452     0.026062938060055     0.011608912823605
    -0.011608912823606     0.011608912823606     0.048763597746074
   1 115
     0.055594120830532    -0.005351338895359     0.005351338895359
    -0.005351338895362     0.036365323822940     0.012252465925544
     0.005351338895362     0.012252465925544     0.036365323822940
   1 116
     0.026062938060055     0.011608912823605    -0.006348097535452
     0.011608912823606     0.048763597746074     0.011608912823606
    -0.006348097535452     0.011608912823605     0.026062938060055
   1 117
     0.026062938060055     0.006348097535452     0.011608912823605
     0.006348097535452     0.026062938060055    -0.011608912823605
     0.011608912823606    -0.011608912823606     0.048763597746074
   1 118
     0.047373002099480    -0.012203246793640    -0.041500882526301
    -0.012203246793640     0.047373002099480    -0.041500882526301
    -0.041500882526301    -0.041500882526301    -0.058576807585291
   1 119
     0.047373002099480     0.041500882526301     0.012203246793640
     0.041500882526301    -0.058576807585291    -0.041500882526301
     0.012203246793640    -0.041500882526301     0.047373002099480
   1 120
     0.026062938060055    -0.011608912823605    -0.006348097535452
    -0.011608912823606     0.048763597746074    -0.011608912823606
    -0.006348097535452    -0.011608912823605     0.026062938060055
   1 121
     0.036365323822940    -0.005351338895362     0.012252465925544
    -0.005351338895359     0.055594120830532     0.005351338895359
     0.012252465925544     0.005351338895362     0.036365323822940
   1 122
    -0.058576807585291     0.041500882526301    -0.041500882526301
     0.041500882526301     0.047373002099480     0.012203246793640
    -0.041500882526301     0.012203246793640     0.047373002099480
   1 123
     0.036365323822940    -0.012252465925544     0.005351338895362
    -0.012252465925544     0.036365323822940     0.005351338895362
     0.005351338895359     0.005351338895359     0.055594120830532
   1 124
     0.000624878533622     0.006497234509769    -0.006497234509769
     0.006497234509769     0.000624878533622     0.006497234509769
    -0.006497234509769     0.006497234509769     0.000624878533622
   1 125
     0.048763597746074     0.011608912823606     0.011608912823606
     0.011608912823605     0.026062938060055    -0.006348097535452
     0.011608912823605    -0.006348097535452     0.026062938060055
   1 126
     0.048763597746074    -0.011608912823606    -0.011608912823606
    -0.011608912823605     0.026062938060055    -0.006348097535452
    -0.011608912823605    -0.006348097535452     0.026062938060055
   1 127
     0.000624878533622     0.006497234509769     0.006497234509769
     0.006497234509769     0.000624878533622    -0.006497234509769
     0.006497234509769    -0.006497234509769     0.000624878533622
   1 128
     0.000624878533622    -0.006497234509769    -0.006497234509769
    -0.006497234509769     0.000624878533622    -0.006497234509769
    -0.006497234509769    -0.006497234509769     0.000624878533622
   2   1
     0.268252310703939    -0.029424667583889    -0.029424667583889
     0.029424667583889    -0.192277363482958    -0.211428022589525
     0.029424667583889    -0.211428022589525    -0.192277363482958
   2   2
    13.273055891566861     0.000000000000000     0.000000000000000
     0.000000000000000    13.273055891566861     0.000000000000000
     0.000000000000000     0.000000000000000    13.273055891566852
   2   3
     0.268252310703939     0.029424667583889     0.029424667583889
    -0.029424667583889    -0.192277363482958    -0.211428022589525
    -0.029424667583889    -0.211428022589525    -0.192277363482958
   2   4
     0.051514288509140     0.000000000000000     0.000000000000000
     0.000000000000000    -0.104880633902555    -0.053621620663003
     0.000000000000000    -0.053621620663002    -0.104880633902555
   2   5
    -0.192277363482958     0.211428022589525     0.029424667583889
     0.211428022589525    -0.192277363482958    -0.029424667583889
    -0.029424667583889     0.029424667583889     0.268252310703939
   2   6
    -0.192277363482958    -0.029424667583889    -0.211428022589525
     0.029424667583889     0.268252310703939     0.029424667583889
    -0.211428022589525    -0.029424667583889    -0.192277363482958
   2   7
    -0.037851572302912     0.016686818464594    -0.007810192183333
     0.016686818464594    -0.037851572302912    -0.007810192183333
    -0.004191446511762    -0.004191446511762    -0.066309689619601
   2   8
    -0.037851572302912     0.007810192183333    -0.016686818464594
     0.004191446511762    -0.066309689619601    -0.004191446511762
    -0.016686818464594    -0.007810192183333    -0.037851572302912
   2   9
    -0.066309689619601     0.007810192183333    -0.007810192183333
     0.004191446511762    -0.037851572302912    -0.016686818464594
    -0.004191446511762    -0.016686818464594    -0.037851572302912
   2  10
    -0.104880633902555     0.000000000000000    -0.053621620663002
     0.000000000000000     0.051514288509140     0.000000000000000
    -0.053621620663003     0.000000000000000    -0.104880633902555
   2  11
    -0.066309689619601     0.004191446511762    -0.004191446511762
     0.007810192183333    -0.037851572302912    -0.016686818464594
    -0.007810192183333    -0.016686818464594    -0.037851572302912
   2  12
    -0.104880633902555     0.053621620663002     0.000000000000000
     0.053621620663002    -0.104880633902555     0.000000000000000
     0.000000000000000     0.000000000000000     0.051514288509140
   2  13
    -0.037851572302912     0.016686818464594    -0.004191446511762
     0.016686818464594    -0.037851572302912    -0.004191446511762
    -0.007810192183333    -0.007810192183333    -0.066309689619601
   2  14
    -0.192277363482958     0.029424667583889    -0.211428022589525
    -0.029424667583889     0.268252310703939    -0.029424667583889
    -0.211428022589525     0.029424667583889    -0.192277363482958
   2  15
    -0.192277363482958     0.211428022589525    -0.029424667583889
     0.211428022589525    -0.192277363482958     0.029424667583889